/*--------------------------------*- C++ -*----------------------------------*\
  =========                 |
  \\      /  F ield         | OpenFOAM: The Open Source CFD Toolbox
   \\    /   O peration     | Website:  https://openfoam.org
    \\  /    A nd           | Version:  7
     \\/     M anipulation  |
\*---------------------------------------------------------------------------*/
FoamFile
{
    version     2.0;
    format      ascii;
    class       volScalarField;
    location    "26";
    object      gradTx;
}
// * * * * * * * * * * * * * * * * * * * * * * * * * * * * * * * * * * * * * //

dimensions      [0 -1 0 1 0 0 0];

internalField   nonuniform List<scalar> 
900
(
-35.6576
-109.541
-191.375
-287.325
-404.997
-554.345
-749.006
-1008.41
-1361.22
-1851.36
-2548.93
-3571.54
-5129.15
-7628.19
-11943.2
-20225
-38631.8
-87572.9
-241976
-774104
-102.471
-314.701
-549.478
-824.221
-1160.31
-1585.52
-2137.62
-2869.81
-3859.65
-5223.85
-7144.42
-9916.52
-14040.8
-20410.2
-30707.2
-48266.8
-79917
-139287
-248430
-408394
-161.695
-496.318
-865.643
-1296.29
-1820.64
-2480.24
-3330.71
-4449.02
-5944.77
-7978.14
-10789.5
-14748.8
-20440.3
-28806.5
-41385.7
-60655.8
-90330.8
-134731
-194062
-248109
-210.874
-646.779
-1126.33
-1682.7
-2355.68
-3195.47
-4267.89
-5661.7
-7499.4
-9953.14
-13268.6
-17800.3
-24061.6
-32789.6
-45005.6
-61996.7
-84992.8
-114001
-144918
-164984
-248.441
-761.285
-1323.21
-1971.09
-2748.4
-3708.88
-4921.11
-6474.78
-8488.99
-11123.5
-14593.1
-19185.2
-25276.2
-33336.3
-43892.8
-57388.2
-73810.3
-91938.1
-108214
-116125
-273.821
-838.145
-1453.62
-2158.15
-2995.6
-4018.83
-5293.32
-6901.65
-8948.75
-11568
-14926.9
-19230.7
-24716.9
-31631.5
-40164
-50308.4
-61614.7
-72832
-81607
-84747.3
-287.355
-878.53
-1520.04
-2248.62
-3105.91
-4140.75
-5411.6
-6989.26
-8959.36
-11424.3
-14502.8
-18325.2
-23019.2
-28678.3
-35303.4
-42706.3
-50376
-57347.8
-62191.5
-63326.6
-290.134
-885.922
-1529.01
-2253.36
-3096.66
-4101.78
-5318.22
-6803.28
-8622.52
-10848.9
-13559.4
-16826.5
-20702.6
-25192.8
-30212.7
-35531.9
-40714.6
-45089.4
-47809.7
-48071
-283.768
-865.383
-1489.76
-2187.13
-2990.24
-3935.21
-5062.13
-6415.15
-8041.75
-9990.38
-12305.9
-15020.9
-18142.6
-21632.3
-25379.7
-29173.5
-32680.9
-35455
-36995.2
-36879
-270.147
-822.803
-1412.87
-2066.38
-2810.85
-3675.67
-4692.11
-5892.76
-7310.16
-8974.08
-10906.9
-13116.4
-15585.9
-18260.5
-21033.1
-23731.3
-26114.2
-27889.6
-28758.9
-28493.3
-251.229
-764.231
-1309.05
-1907.45
-2581.92
-3355.65
-4252.24
-5294.81
-6504.44
-7897.6
-9482.18
-11252.1
-13180.3
-15210.9
-17251.7
-19170
-20796.5
-21940.8
-22422.8
-22114.8
-228.865
-695.366
-1188.25
-1725.27
-2324.34
-3003.3
-3779.42
-4668.48
-5683.24
-6831.3
-8112
-9512.59
-11003.8
-12535.4
-14033.1
-15398.3
-16513.5
-17254.6
-17511.3
-17210.7
-204.69
-621.204
-1059.1
-1532.57
-2055.54
-2641.42
-3302.51
-4049.12
-4888.31
-5822.12
-6845.41
-7943.23
-9088.18
-10238.2
-11335.6
-12308.7
-13076.3
-13557.3
-13683.1
-13411.4
-180.059
-545.86
-928.652
-1339.52
-1789.12
-2287.3
-2842.57
-3461.36
-4146.98
-4898.31
-5708.27
-6562.21
-7436.39
-8297.05
-9100.56
-9795.21
-10325.3
-10637.3
-10688.1
-10452.8
-156.022
-472.511
-802.251
-1153.76
-1535.02
-1953.12
-2413.8
-2920.82
-3475.15
-4074.08
-4710.16
-5370.24
-6034.71
-6677.21
-7265.25
-7761.89
-8128.81
-8330.57
-8339.69
-8141.4
-133.339
-403.437
-683.694
-980.544
-1299.87
-1646.67
-2024.71
-2435.95
-2880.06
-3353.69
-3849.86
-4357.38
-4860.56
-5339.22
-5769.44
-6124.94
-6379.33
-6508.97
-6496.23
-6332.25
-112.512
-340.123
-575.401
-823.129
-1087.57
-1372.19
-1679.34
-2009.89
-2362.81
-2734.7
-3119.44
-3507.85
-3887.65
-4243.62
-4558.27
-4812.96
-4989.47
-5071.98
-5049.04
-4915.37
-93.8209
-283.392
-478.662
-683.134
-899.848
-1131.15
-1378.47
-1641.97
-1920.36
-2210.5
-2507.24
-2803.26
-3089.09
-3353.36
-3583.37
-3765.92
-3888.42
-3940.2
-3913.81
-3806.08
-77.3743
-233.54
-393.883
-560.931
-736.817
-923.099
-1120.56
-1329.03
-1547.14
-1772.17
-1999.91
-2224.63
-2439.13
-2634.99
-2803.02
-2933.88
-3018.85
-3050.71
-3024.59
-2938.62
-63.1506
-190.479
-320.826
-455.991
-597.446
-746.194
-902.628
-1066.38
-1236.17
-1409.74
-1583.72
-1753.67
-1914.19
-2059.08
-2181.73
-2275.51
-2334.39
-2353.46
-2329.53
-2261.49
-51.0372
-153.846
-258.808
-367.183
-479.969
-597.795
-720.805
-848.562
-979.952
-1113.12
-1245.43
-1373.49
-1493.28
-1600.27
-1689.68
-1756.85
-1797.58
-1808.55
-1787.63
-1734.2
-40.8637
-123.109
-206.869
-293.013
-382.206
-474.822
-570.866
-669.9
-770.982
-872.629
-972.807
-1068.96
-1158.1
-1236.92
-1302.01
-1350.08
-1378.2
-1384.11
-1366.41
-1324.76
-32.4272
-97.6423
-163.907
-231.815
-301.796
-374.062
-448.54
-524.829
-602.156
-679.357
-754.878
-826.805
-892.936
-950.877
-998.188
-1032.54
-1051.91
-1054.75
-1040.12
-1007.87
-25.5129
-76.7861
-128.777
-181.882
-236.375
-292.36
-349.733
-408.144
-466.972
-525.316
-582.001
-635.604
-684.513
-726.999
-761.32
-785.836
-799.139
-800.169
-788.317
-763.503
-19.9077
-59.8905
-100.357
-141.566
-183.686
-226.758
-270.669
-315.125
-359.635
-403.511
-445.871
-485.666
-521.72
-552.789
-577.633
-595.098
-604.205
-604.23
-594.773
-575.804
-15.4103
-46.3422
-77.5942
-109.333
-141.657
-174.571
-207.965
-241.6
-275.095
-307.928
-339.443
-368.87
-395.357
-418.011
-435.951
-448.368
-454.581
-454.096
-446.648
-432.238
-11.8365
-35.5825
-59.5366
-83.8031
-108.436
-133.42
-158.658
-183.957
-209.027
-233.474
-256.815
-278.487
-297.876
-314.342
-327.264
-336.072
-340.294
-339.593
-333.796
-322.916
-9.02303
-27.1158
-45.3411
-63.7618
-82.4043
-101.245
-120.201
-139.12
-157.782
-175.895
-193.102
-208.996
-223.136
-235.066
-244.346
-250.578
-253.436
-252.689
-248.224
-240.059
-6.82756
-20.5119
-34.2785
-48.1637
-62.1773
-76.2935
-90.4433
-104.51
-118.327
-131.678
-144.304
-155.911
-166.182
-174.795
-181.439
-185.837
-187.763
-187.06
-183.654
-177.564
-5.12894
-15.4046
-25.7297
-36.1238
-46.5877
-57.0963
-67.5943
-77.9923
-88.166
-97.9571
-107.178
-115.616
-123.047
-129.242
-133.984
-137.079
-138.37
-137.753
-135.177
-130.662
-3.82555
-11.4871
-19.177
-26.9049
-34.6667
-42.4401
-50.1814
-57.823
-65.2731
-72.4164
-79.1171
-85.2243
-90.5778
-95.0169
-98.3891
-100.56
-101.422
-100.903
-98.9727
-95.6452
-2.83343
-8.5061
-14.1941
-19.9011
-25.6209
-31.3347
-37.0086
-42.5921
-48.0176
-53.2017
-58.0472
-62.4465
-66.2866
-69.4546
-71.8442
-73.362
-73.9345
-73.5127
-72.077
-69.6395
-2.08415
-6.25542
-10.4341
-14.6206
-18.8084
-22.982
-27.1155
-31.1714
-35.1006
-38.8431
-42.3293
-45.4833
-48.2255
-50.477
-52.1637
-53.2214
-53.5995
-53.265
-52.2056
-50.4306
-1.52259
-4.56908
-7.61846
-10.6694
-13.7158
-16.7454
-19.7385
-22.6677
-25.4974
-28.1846
-30.6802
-32.9304
-34.8796
-36.4728
-37.6587
-38.3931
-38.6414
-38.3815
-37.6054
-36.3207
-1.10491
-3.3151
-5.52568
-7.73463
-9.93668
-12.1222
-14.2767
-16.3799
-18.4064
-20.3256
-22.1028
-23.7003
-25.0794
-26.2018
-27.0322
-27.5402
-27.7023
-27.5036
-26.9393
-26.015
-0.796569
-2.38958
-3.98175
-5.57094
-7.15275
-8.71984
-10.2614
-11.7629
-13.2062
-14.5695
-15.8286
-16.9572
-17.9283
-18.7155
-19.2945
-19.6446
-19.7498
-19.6001
-19.1926
-18.5314
-0.570666
-1.71166
-2.8513
-3.9876
-5.11705
-6.23409
-7.33082
-8.39681
-9.41913
-10.3826
-11.2701
-12.0635
-12.7442
-13.2938
-13.6959
-13.9363
-14.0041
-13.8927
-13.6004
-13.1302
-0.406458
-1.21896
-2.03001
-2.8379
-3.63987
-4.43178
-5.20789
-5.96078
-6.68131
-7.35885
-7.98156
-8.53682
-9.01178
-9.394
-9.67213
-9.83654
-9.87996
-9.79801
-9.58955
-9.25692
-0.28811
-0.86393
-1.43839
-2.01009
-2.57691
-3.1358
-3.68263
-4.21211
-4.71784
-5.19242
-5.62762
-6.01477
-6.34503
-6.60991
-6.80169
-6.91382
-6.94145
-6.88165
-6.73376
-6.49947
-0.203675
-0.610667
-1.01648
-1.42
-1.81962
-2.21309
-2.59746
-2.969
-3.32321
-3.65493
-3.95851
-4.22795
-4.45721
-4.64049
-4.77253
-4.84892
-4.86639
-4.823
-4.71838
-4.55375
-0.144249
-0.432444
-0.71966
-1.00502
-1.2873
-1.56488
-1.83562
-2.09688
-2.34552
-2.57793
-2.79019
-2.97817
-3.13772
-3.26487
-3.35603
-3.40821
-3.41921
-3.38775
-3.31362
-3.19768
-0.103313
-0.309688
-0.51526
-0.719339
-0.921007
-1.11906
-1.31194
-1.49778
-1.67432
-1.83904
-1.98918
-2.12186
-2.2342
-2.32344
-2.38712
-2.42319
-2.43014
-2.40711
-2.35399
-2.27142
-0.0762132
-0.22843
-0.379984
-0.530323
-0.678734
-0.824303
-0.965879
-1.10206
-1.23122
-1.35152
-1.46096
-1.55748
-1.639
-1.70357
-1.74942
-1.77512
-1.77959
-1.76226
-1.72306
-1.66248
-0.0597746
-0.179143
-0.297944
-0.415714
-0.531873
-0.645684
-0.756237
-0.862437
-0.963012
-1.05654
-1.14149
-1.21626
-1.27929
-1.32908
-1.36429
-1.38383
-1.38691
-1.37308
-1.34233
-1.29503
-0.0520267
-0.155914
-0.259281
-0.361709
-0.462681
-0.561547
-0.657509
-0.749614
-0.836762
-0.917724
-0.991182
-1.05577
-1.11014
-1.15302
-1.18326
-1.19994
-1.20238
-1.19023
-1.16346
-1.12241
)
;

boundaryField
{
    topWall
    {
        type            calculated;
        value           nonuniform List<scalar> 
20
(
-0.0520267
-0.155914
-0.259281
-0.361709
-0.462681
-0.561547
-0.657509
-0.749614
-0.836762
-0.917724
-0.991182
-1.05577
-1.11014
-1.15302
-1.18326
-1.19994
-1.20238
-1.19023
-1.16346
-1.12241
)
;
    }
    bottomWall
    {
        type            calculated;
        value           nonuniform List<scalar> 
20
(
-35.6576
-109.541
-191.375
-287.325
-404.997
-554.345
-749.006
-1008.41
-1361.22
-1851.36
-2548.93
-3571.54
-5129.15
-7628.19
-11943.2
-20225
-38631.8
-87572.9
-241976
-774104
)
;
    }
    sideWallL
    {
        type            symmetry;
    }
    sideWallR
    {
        type            calculated;
        value           nonuniform List<scalar> 
45
(
-1.18788e+06
-498087
-269239
-170010
-116992
-84480.1
-62776.9
-47498.9
-36364.1
-28055.2
-21752.2
-16915.1
-13173
-10262
-7989.48
-6211.98
-4820.62
-3731.79
-2880.64
-2216.46
-1699.38
-1297.97
-987.36
-747.879
-563.962
-423.309
-316.219
-235.062
-173.856
-127.926
-93.6369
-68.1738
-49.3669
-35.5532
-25.4642
-18.1385
-12.8513
-9.06007
-6.36109
-4.45668
-3.12945
-2.2229
-1.62693
-1.26732
-1.09838
)
;
    }
    frontAndBack
    {
        type            empty;
    }
}


// ************************************************************************* //
