/*--------------------------------*- C++ -*----------------------------------*\
  =========                 |
  \\      /  F ield         | OpenFOAM: The Open Source CFD Toolbox
   \\    /   O peration     | Website:  https://openfoam.org
    \\  /    A nd           | Version:  7
     \\/     M anipulation  |
\*---------------------------------------------------------------------------*/
FoamFile
{
    version     2.0;
    format      ascii;
    class       volScalarField;
    location    "26";
    object      gradTy;
}
// * * * * * * * * * * * * * * * * * * * * * * * * * * * * * * * * * * * * * //

dimensions      [0 -1 0 1 0 0 0];

internalField   nonuniform List<scalar> 
900
(
-187488
-187626
-187912
-188367
-189023
-189932
-191163
-192819
-195042
-198039
-202117
-207733
-215605
-226903
-243643
-269553
-312135
-388102
-538994
-878507
-163501
-163627
-163888
-164301
-164897
-165717
-166823
-168299
-170263
-172882
-176390
-181123
-187567
-196434
-208746
-225876
-249176
-277575
-296334
-229661
-142361
-142469
-142693
-143046
-143551
-144241
-145161
-146372
-147953
-150011
-152682
-156135
-160566
-166156
-172946
-180455
-186675
-185531
-161390
-82019.1
-123677
-123764
-123942
-124221
-124617
-125149
-125845
-126739
-127871
-129284
-131016
-133087
-135453
-137923
-139983
-140430
-136715
-123910
-93922
-38061.8
-107095
-107158
-107286
-107485
-107762
-108125
-108585
-109151
-109825
-110600
-111440
-112258
-112870
-112914
-111712
-108072
-100024
-84693.9
-58854.6
-21382.6
-92392.9
-92431.8
-92510.1
-92628.6
-92787.6
-92986.1
-93219.5
-93476.6
-93734
-93947
-94034.7
-93856.6
-93174.7
-91599.5
-88516.7
-83010.1
-73834.8
-59575.7
-39244.4
-13553.7
-79384.4
-79400.7
-79432.2
-79476.1
-79527.4
-79577.2
-79610.4
-79602.1
-79512
-79275.9
-78793
-77908.3
-76388.8
-73894.1
-69950.1
-63942.8
-55173.5
-43042.6
-27431
-9245.3
-67908.4
-67904.8
-67895.3
-67874.5
-67833.8
-67758.9
-67628.2
-67409.4
-67054.1
-66491.8
-65620.2
-64294.9
-62315.9
-59418.3
-55270
-49494.6
-41737.2
-31799.5
-19844.4
-6603.19
-57821.2
-57801.2
-57758.1
-57685.1
-57571.1
-57399.3
-57145
-56773.2
-56234.5
-55460.8
-54359.6
-52808.3
-50649.6
-47691.6
-43717.3
-38512
-31916.7
-23911.7
-14716.8
-4860.91
-48992.6
-48960.1
-48891.4
-48779.3
-48611.8
-48371
-48032.2
-47561.1
-46911.9
-46023.8
-44819.1
-43200.2
-41050.3
-38237.9
-34628.8
-30109.8
-24625.3
-18225.4
-11111.2
-3652.98
-41302.4
-41261.1
-41174.9
-41036.5
-40833.8
-40549.9
-40161.4
-39637.3
-38937.2
-38010.3
-36794.4
-35215.4
-33190.5
-30633.4
-27465.4
-23633.4
-19132.5
-14032.7
-8497.61
-2785.02
-34638.3
-34591.8
-34495.3
-34341.8
-34120.4
-33815.5
-33406.2
-32865.7
-32160.5
-31249.6
-30085
-28612.8
-26776.1
-24520.7
-21803.4
-18604.7
-14942.2
-10884.5
-6558.65
-2144.8
-28895.1
-28846.3
-28745.6
-28586.7
-28359.9
-28051.5
-27643.9
-27114.7
-26436.8
-25578.4
-24503.8
-23174.7
-21553.4
-19607.3
-17315
-14674.7
-11711.9
-8486.43
-5094.54
-1663.29
-23973.8
-23925.1
-23825.1
-23668.3
-23446.3
-23147.7
-22758
-22259
-21629.7
-20845.9
-19881.6
-18710.6
-17308.7
-15657.2
-13747.7
-11586.8
-9200.87
-6639.27
-3974.12
-1295.88
-19781.4
-19734.7
-19639
-19489.8
-19280
-19000.5
-18639.4
-18182.7
-17614
-16915.7
-16069.4
-15057.3
-13864.6
-12481.5
-10906.7
-9150.36
-7236.45
-5204.4
-3108.1
-1012.5
-16231.6
-16188.1
-16099.2
-15961.2
-15768.6
-15513.8
-15187.6
-14779.3
-14276.7
-13667
-12937.3
-12076.2
-11074.9
-9929.18
-8641.34
-7222.21
-5692.41
-4082.87
-2433.81
-792.216
-13244
-13204.5
-13124
-12999.5
-12826.6
-12599.5
-12311.1
-11953.2
-11517.1
-10993.5
-10373.9
-9650.91
-8819.77
-7879.44
-6833.91
-5693.37
-4474.89
-3202.47
-1906.12
-620.047
-10745.2
-10710.1
-10638.6
-10528.6
-10376.4
-10177.8
-9927.35
-9619.03
-9246.48
-8803.36
-8283.95
-7683.84
-7000.73
-6235.31
-5392.09
-4480.06
-3513.01
-2509.44
-1491.75
-484.994
-8668.15
-8637.48
-8575.23
-8479.64
-8348.09
-8177.24
-7963.13
-7701.4
-7387.53
-7017.21
-6586.77
-6093.68
-5537.18
-4918.79
-4242.9
-3517.14
-2752.49
-1963.11
-1165.76
-378.834
-6952.42
-6926.09
-6872.73
-6791.01
-6678.98
-6534.16
-6353.68
-6134.4
-5873.21
-5567.22
-5214.16
-4812.73
-4363.02
-3866.89
-3328.3
-2753.55
-2151.27
-1532.28
-909.106
-295.315
-5544.07
-5521.79
-5476.7
-5407.83
-5313.73
-5192.59
-5042.35
-4860.83
-4645.88
-4395.64
-4108.77
-3784.73
-3424.06
-3028.64
-2601.89
-2148.92
-1676.46
-1192.74
-707.114
-229.622
-4395.3
-4376.69
-4339.1
-4281.79
-4203.73
-4103.62
-3980
-3831.36
-3656.27
-3453.56
-3222.51
-2963.01
-2675.82
-2362.66
-2026.43
-1671.18
-1302.12
-925.506
-548.325
-178.005
-3464.19
-3448.83
-3417.86
-3370.74
-3306.73
-3224.91
-3124.27
-3003.78
-2862.51
-2699.77
-2515.2
-2308.96
-2081.84
-1835.38
-1571.92
-1294.68
-1007.68
-715.617
-423.732
-137.523
-2714.26
-2701.74
-2676.51
-2638.19
-2586.26
-2520.08
-2438.95
-2342.21
-2229.25
-2099.69
-1953.4
-1790.68
-1612.27
-1419.46
-1214.18
-998.909
-776.733
-551.202
-326.216
-105.85
-2114.1
-2104
-2083.66
-2052.81
-2011.11
-1958.1
-1893.32
-1816.33
-1726.77
-1624.45
-1509.39
-1381.89
-1242.65
-1092.74
-933.664
-767.37
-596.196
-422.812
-250.123
-81.1426
-1636.85
-1628.78
-1612.55
-1587.96
-1554.78
-1512.71
-1461.44
-1400.7
-1330.28
-1250.09
-1160.24
-1061.04
-953.061
-837.192
-714.615
-586.823
-455.589
-322.912
-190.952
-61.9357
-1259.77
-1253.38
-1240.54
-1221.13
-1194.97
-1161.88
-1121.65
-1074.11
-1019.17
-956.8
-887.133
-810.458
-727.259
-638.237
-544.314
-446.631
-346.524
-245.486
-145.117
-47.0616
-963.734
-958.725
-948.663
-933.467
-913.024
-887.209
-855.898
-818.994
-776.45
-728.294
-674.654
-615.783
-552.077
-484.089
-412.53
-338.265
-262.295
-185.734
-109.762
-35.5908
-732.815
-728.921
-721.104
-709.309
-693.466
-673.493
-649.317
-620.887
-588.189
-551.27
-510.252
-465.346
-416.871
-365.257
-311.048
-254.896
-197.549
-139.831
-82.6127
-26.7841
-553.847
-550.845
-544.823
-535.744
-523.564
-508.233
-489.71
-467.971
-443.024
-414.918
-383.762
-349.731
-313.076
-274.127
-233.298
-191.077
-148.02
-104.736
-61.8637
-20.0547
-416.037
-413.742
-409.139
-402.206
-392.916
-381.239
-367.154
-350.654
-331.754
-310.505
-286.999
-261.375
-233.829
-204.614
-174.041
-142.474
-110.325
-78.0384
-46.0847
-14.938
-310.604
-308.862
-305.372
-300.119
-293.088
-284.261
-273.63
-261.195
-246.978
-231.023
-213.405
-194.235
-173.664
-151.883
-129.124
-105.657
-81.7853
-57.8347
-34.1471
-11.0675
-230.461
-229.15
-226.524
-222.575
-217.293
-210.67
-202.703
-193.4
-182.779
-170.879
-157.762
-143.512
-128.246
-112.105
-95.2638
-77.9199
-60.2949
-42.6268
-25.1636
-8.15515
-169.936
-168.957
-166.996
-164.048
-160.11
-155.177
-149.25
-142.338
-134.458
-125.643
-115.941
-105.417
-94.1579
-82.2707
-69.8827
-57.1392
-44.2014
-31.242
-18.44
-5.97568
-124.519
-123.793
-122.34
-120.157
-117.241
-113.594
-109.216
-104.116
-98.3111
-91.8253
-84.696
-76.9737
-68.7228
-60.0223
-50.9655
-41.6581
-32.217
-22.7665
-13.4356
-4.35367
-90.6557
-90.1214
-89.0522
-87.4471
-85.3052
-82.6274
-79.4171
-75.6816
-71.434
-66.6943
-61.491
-55.8617
-49.8542
-43.5265
-36.9463
-30.1903
-23.3424
-16.4921
-9.73156
-3.15321
-65.5615
-65.1714
-64.3909
-63.2196
-61.6578
-59.7067
-57.3698
-54.6532
-51.5676
-48.1284
-44.3569
-40.2813
-35.9366
-31.3648
-26.6151
-21.7424
-16.807
-11.8726
-7.00492
-2.2696
-47.0728
-46.7902
-46.225
-45.3773
-44.2475
-42.8372
-41.1492
-39.189
-36.9645
-34.4877
-31.7744
-28.8452
-25.7256
-22.446
-19.0417
-15.5518
-12.0192
-8.48918
-5.00814
-1.62256
-33.5179
-33.3151
-32.9096
-32.3016
-31.4917
-30.4813
-29.273
-27.8709
-26.2812
-24.5128
-22.5773
-20.4898
-18.2685
-15.9352
-13.5149
-11.0356
-8.52732
-6.02201
-3.55232
-1.15085
-23.6122
-23.4684
-23.1807
-22.7496
-22.1757
-21.46
-20.6047
-19.613
-18.4895
-17.2407
-15.875
-14.4033
-12.8384
-11.1959
-9.49338
-7.75028
-5.98777
-4.22805
-2.49388
-0.80791
-16.3714
-16.2711
-16.0705
-15.7699
-15.3698
-14.8712
-14.2758
-13.5857
-12.8045
-11.9368
-10.9886
-9.96751
-8.88256
-7.7445
-6.56551
-5.35909
-4.13978
-2.92284
-1.72388
-0.558446
-11.0407
-10.9726
-10.8367
-10.633
-10.362
-10.0244
-9.62139
-9.15465
-8.62657
-8.04036
-7.40016
-6.71112
-5.97946
-5.2124
-4.41816
-3.6058
-2.78507
-1.96618
-1.15958
-0.37563
-7.03622
-6.99268
-6.90567
-6.77536
-6.60205
-6.38623
-6.12868
-5.83052
-5.49334
-5.11922
-4.71084
-4.27152
-3.80524
-3.31662
-2.81088
-2.29378
-1.77151
-1.25055
-0.73749
-0.238895
-3.89753
-3.87334
-3.82501
-3.75264
-3.6564
-3.53658
-3.39364
-3.22821
-3.04119
-2.83375
-2.6074
-2.36397
-2.10569
-1.83512
-1.55514
-1.26895
-0.979963
-0.691742
-0.407929
-0.132138
-1.24669
-1.23894
-1.22346
-1.20028
-1.16946
-1.13109
-1.08532
-1.03236
-0.972496
-0.906109
-0.833681
-0.755806
-0.673191
-0.586657
-0.49713
-0.405628
-0.31324
-0.221105
-0.130386
-0.0422349
)
;

boundaryField
{
    topWall
    {
        type            calculated;
        value           uniform 0;
    }
    bottomWall
    {
        type            calculated;
        value           nonuniform List<scalar> 
20
(
-200232
-200375
-200670
-201140
-201820
-202760
-204037
-205756
-208071
-211201
-215476
-221397
-229762
-241914
-260275
-289686
-341175
-444213
-691467
-1.41212e+06
)
;
    }
    sideWallL
    {
        type            symmetry;
    }
    sideWallR
    {
        type            calculated;
        value           nonuniform List<scalar> 
45
(
-878507
-229661
-82019.1
-38061.8
-21382.6
-13553.7
-9245.3
-6603.19
-4860.91
-3652.98
-2785.02
-2144.8
-1663.29
-1295.88
-1012.5
-792.216
-620.047
-484.994
-378.834
-295.315
-229.622
-178.005
-137.523
-105.85
-81.1426
-61.9357
-47.0616
-35.5908
-26.7841
-20.0547
-14.938
-11.0675
-8.15515
-5.97568
-4.35367
-3.15321
-2.2696
-1.62256
-1.15085
-0.80791
-0.558446
-0.37563
-0.238895
-0.132138
-0.0422349
)
;
    }
    frontAndBack
    {
        type            empty;
    }
}


// ************************************************************************* //
