/*--------------------------------*- C++ -*----------------------------------*\
  =========                 |
  \\      /  F ield         | OpenFOAM: The Open Source CFD Toolbox
   \\    /   O peration     | Website:  https://openfoam.org
    \\  /    A nd           | Version:  7
     \\/     M anipulation  |
\*---------------------------------------------------------------------------*/
FoamFile
{
    version     2.0;
    format      ascii;
    class       volScalarField;
    location    "26";
    object      rhoc;
}
// * * * * * * * * * * * * * * * * * * * * * * * * * * * * * * * * * * * * * //

dimensions      [1 -3 0 0 0 0 0];

internalField   nonuniform List<scalar> 
900
(
9.92886e-09
9.91315e-09
9.88063e-09
9.82898e-09
9.75451e-09
9.65183e-09
9.51346e-09
9.32916e-09
9.0852e-09
8.76322e-09
8.33903e-09
7.78127e-09
7.05079e-09
6.10241e-09
4.89468e-09
3.4221e-09
1.80737e-09
4.8326e-10
1.62274e-11
8.84042e-17
9.91774e-11
9.86608e-11
9.75974e-11
9.5926e-11
9.35531e-11
9.03523e-11
8.61656e-11
8.08102e-11
7.40951e-11
6.58581e-11
5.60337e-11
4.47679e-11
3.25821e-11
2.05445e-11
1.02803e-11
3.46355e-12
5.62546e-13
2.09048e-14
2.81344e-17
9.54848e-24
1.04149e-12
1.0318e-12
1.01198e-12
9.81218e-13
9.38331e-13
8.81942e-13
8.10703e-13
7.2371e-13
6.2117e-13
5.05331e-13
3.81576e-13
2.59226e-13
1.51037e-13
6.99563e-14
2.27309e-14
4.18074e-15
2.96501e-16
3.98794e-18
2.7507e-21
1.47804e-26
1.21153e-14
1.19507e-14
1.16167e-14
1.1105e-14
1.04056e-14
9.51088e-15
8.42129e-15
7.1538e-15
5.75185e-15
4.29429e-15
2.89702e-15
1.69761e-15
8.15152e-16
2.93792e-16
6.94532e-17
8.72656e-18
4.19218e-19
4.66616e-21
6.21999e-24
8.44736e-28
1.64698e-16
1.6178e-16
1.55905e-16
1.47023e-16
1.35119e-16
1.20295e-16
1.02875e-16
8.35282e-17
6.33639e-17
4.39253e-17
2.6984e-17
1.4072e-17
5.86319e-18
1.79082e-18
3.54748e-19
3.83598e-20
1.79285e-21
2.732e-23
1.09948e-25
1.95382e-28
2.75253e-18
2.6937e-18
2.57615e-18
2.4006e-18
2.16953e-18
1.8887e-18
1.56901e-18
1.22798e-18
8.89949e-19
5.83533e-19
3.35544e-19
1.62262e-19
6.23801e-20
1.76895e-20
3.355e-21
3.76406e-22
2.17296e-23
5.74091e-25
7.22268e-27
8.42881e-29
5.91808e-20
5.77453e-20
5.48945e-20
5.06818e-20
4.52198e-20
3.87139e-20
3.14943e-20
2.40309e-20
1.69053e-20
1.07214e-20
5.9541e-21
2.78902e-21
1.05078e-21
3.00177e-22
6.06236e-23
8.02183e-24
6.51241e-25
3.20633e-26
1.12145e-27
5.0013e-29
1.70047e-21
1.65597e-21
1.56802e-21
1.43908e-21
1.27381e-21
1.0798e-21
8.68334e-22
6.54239e-22
4.5452e-22
2.85327e-22
1.57805e-22
7.45455e-23
2.89844e-23
8.89198e-24
2.05898e-24
3.46273e-25
4.16869e-26
3.77239e-27
3.11285e-28
3.5548e-29
6.72328e-23
6.5417e-23
6.18395e-23
5.66227e-23
4.99826e-23
4.2256e-23
3.3916e-23
2.55565e-23
1.78274e-23
1.13162e-23
6.40333e-24
3.15374e-24
1.3166e-24
4.5344e-25
1.25853e-25
2.78419e-26
4.99792e-27
7.85717e-28
1.28635e-28
2.82018e-29
3.73038e-24
3.63054e-24
3.43415e-24
3.14846e-24
2.78587e-24
2.36515e-24
1.91193e-24
1.45762e-24
1.03591e-24
6.76929e-25
4.00414e-25
2.10786e-25
9.70823e-26
3.85546e-26
1.3103e-26
3.83889e-27
1.00375e-27
2.5316e-28
6.98092e-29
2.40059e-29
2.93526e-25
2.86039e-25
2.71313e-25
2.49885e-25
2.22662e-25
1.90999e-25
1.56724e-25
1.22068e-25
8.94281e-26
6.09956e-26
3.83094e-26
2.19173e-26
1.13176e-26
5.24868e-27
2.19319e-27
8.40026e-28
3.06282e-28
1.13085e-28
4.56248e-29
2.14146e-29
3.28489e-26
3.20816e-26
3.05702e-26
2.83655e-26
2.55526e-26
2.22588e-26
1.86563e-26
1.49574e-26
1.13948e-26
8.19079e-27
5.51722e-27
3.46241e-27
2.01789e-27
1.0937e-27
5.56188e-28
2.70529e-28
1.2985e-28
6.4061e-29
3.38507e-29
1.97258e-29
5.21366e-27
5.10683e-27
4.89592e-27
4.58691e-27
4.19001e-27
3.72058e-27
3.19982e-27
2.65433e-27
2.11436e-27
1.61038e-27
1.16848e-27
8.06001e-28
5.28797e-28
3.31452e-28
2.00441e-28
1.18822e-28
7.0538e-29
4.29459e-29
2.73983e-29
1.85829e-29
1.1636e-27
1.14367e-27
1.1042e-27
1.04606e-27
9.70747e-28
8.8061e-28
7.78952e-28
6.70072e-28
5.59064e-28
4.51374e-28
3.52138e-28
2.65443e-28
1.93733e-28
1.3756e-28
9.57842e-29
6.61278e-29
4.58618e-29
3.23837e-29
2.35532e-29
1.77882e-29
3.58601e-28
3.53722e-28
3.44027e-28
3.29659e-28
3.10884e-28
2.8813e-28
2.62029e-28
2.33444e-28
2.03448e-28
1.73263e-28
1.44142e-28
1.17227e-28
9.33991e-29
7.31785e-29
5.66939e-29
4.37337e-29
3.38533e-29
2.65006e-29
2.11208e-29
1.7225e-29
1.47583e-28
1.4606e-28
1.43026e-28
1.38503e-28
1.32542e-28
1.25232e-28
1.16715e-28
1.07197e-28
9.69481e-29
8.62996e-29
7.56171e-29
6.52697e-29
5.55903e-29
4.68396e-29
3.91821e-29
3.26799e-29
2.73045e-29
2.29605e-29
1.95145e-29
1.68204e-29
7.72645e-29
7.66809e-29
7.55139e-29
7.3766e-29
7.14455e-29
6.8571e-29
6.51772e-29
6.13195e-29
5.70772e-29
5.25537e-29
4.78721e-29
4.31676e-29
3.85762e-29
3.42215e-29
3.02041e-29
2.65937e-29
2.34265e-29
2.07084e-29
1.84203e-29
1.65268e-29
4.87137e-29
4.84493e-29
4.79193e-29
4.71223e-29
4.60581e-29
4.47294e-29
4.31444e-29
4.13189e-29
3.92784e-29
3.70592e-29
3.47077e-29
3.22788e-29
2.98325e-29
2.74291e-29
2.51247e-29
2.29663e-29
2.09896e-29
1.92169e-29
1.76582e-29
1.63125e-29
3.5177e-29
3.50406e-29
3.47667e-29
3.43538e-29
3.38001e-29
3.31047e-29
3.22688e-29
3.12969e-29
3.01975e-29
2.89844e-29
2.76768e-29
2.6299e-29
2.48794e-29
2.34488e-29
2.20383e-29
2.06772e-29
1.93912e-29
1.82003e-29
1.71189e-29
1.61553e-29
2.79595e-29
2.7882e-29
2.77261e-29
2.74906e-29
2.71739e-29
2.67746e-29
2.62921e-29
2.57274e-29
2.50832e-29
2.43652e-29
2.35818e-29
2.27447e-29
2.18681e-29
2.09685e-29
2.00638e-29
1.9172e-29
1.83099e-29
1.74928e-29
1.6733e-29
1.60398e-29
2.37626e-29
2.37152e-29
2.36199e-29
2.34758e-29
2.32817e-29
2.30363e-29
2.27388e-29
2.2389e-29
2.19878e-29
2.15375e-29
2.10421e-29
2.05076e-29
1.99415e-29
1.93532e-29
1.87531e-29
1.81524e-29
1.75623e-29
1.69932e-29
1.64548e-29
1.59548e-29
2.11626e-29
2.11321e-29
2.10708e-29
2.0978e-29
2.08529e-29
2.06945e-29
2.05021e-29
2.02752e-29
2.00141e-29
1.97197e-29
1.93942e-29
1.90405e-29
1.86631e-29
1.82674e-29
1.78597e-29
1.74472e-29
1.70372e-29
1.66369e-29
1.62533e-29
1.58923e-29
1.94766e-29
1.94563e-29
1.94153e-29
1.93534e-29
1.92698e-29
1.91639e-29
1.90351e-29
1.88831e-29
1.87078e-29
1.85096e-29
1.82896e-29
1.80497e-29
1.77923e-29
1.75209e-29
1.72393e-29
1.69522e-29
1.66645e-29
1.63811e-29
1.61069e-29
1.58463e-29
1.8347e-29
1.8333e-29
1.8305e-29
1.82625e-29
1.82052e-29
1.81327e-29
1.80445e-29
1.79402e-29
1.78199e-29
1.76837e-29
1.75322e-29
1.73666e-29
1.71883e-29
1.69996e-29
1.68029e-29
1.66013e-29
1.63981e-29
1.61967e-29
1.60005e-29
1.58127e-29
1.75723e-29
1.75626e-29
1.7543e-29
1.75134e-29
1.74735e-29
1.7423e-29
1.73615e-29
1.72889e-29
1.72051e-29
1.71101e-29
1.70045e-29
1.68888e-29
1.6764e-29
1.66316e-29
1.64933e-29
1.6351e-29
1.62069e-29
1.60635e-29
1.59231e-29
1.5788e-29
1.70325e-29
1.70257e-29
1.70119e-29
1.6991e-29
1.69628e-29
1.69272e-29
1.6884e-29
1.68329e-29
1.67739e-29
1.67072e-29
1.66328e-29
1.65514e-29
1.64635e-29
1.63702e-29
1.62724e-29
1.61717e-29
1.60694e-29
1.59673e-29
1.5867e-29
1.57701e-29
1.66523e-29
1.66475e-29
1.66376e-29
1.66228e-29
1.66028e-29
1.65776e-29
1.65469e-29
1.65108e-29
1.64691e-29
1.64219e-29
1.63693e-29
1.63118e-29
1.62497e-29
1.61837e-29
1.61145e-29
1.60431e-29
1.59705e-29
1.58978e-29
1.58263e-29
1.5757e-29
1.63828e-29
1.63793e-29
1.63723e-29
1.63617e-29
1.63475e-29
1.63295e-29
1.63077e-29
1.6282e-29
1.62524e-29
1.6219e-29
1.61818e-29
1.6141e-29
1.60971e-29
1.60504e-29
1.60014e-29
1.59508e-29
1.58993e-29
1.58478e-29
1.57969e-29
1.57476e-29
1.61909e-29
1.61884e-29
1.61834e-29
1.61759e-29
1.61657e-29
1.61529e-29
1.61374e-29
1.61192e-29
1.60982e-29
1.60744e-29
1.60481e-29
1.60192e-29
1.59882e-29
1.59551e-29
1.59205e-29
1.58847e-29
1.58483e-29
1.58118e-29
1.57758e-29
1.57407e-29
1.60542e-29
1.60524e-29
1.60488e-29
1.60435e-29
1.60362e-29
1.60271e-29
1.60161e-29
1.60031e-29
1.59882e-29
1.59714e-29
1.59528e-29
1.59324e-29
1.59104e-29
1.58871e-29
1.58627e-29
1.58375e-29
1.58118e-29
1.5786e-29
1.57606e-29
1.57358e-29
1.59568e-29
1.59555e-29
1.5953e-29
1.59491e-29
1.5944e-29
1.59375e-29
1.59297e-29
1.59205e-29
1.591e-29
1.58981e-29
1.58849e-29
1.58706e-29
1.58551e-29
1.58387e-29
1.58215e-29
1.58038e-29
1.57857e-29
1.57676e-29
1.57497e-29
1.57323e-29
1.58875e-29
1.58866e-29
1.58848e-29
1.58821e-29
1.58784e-29
1.58738e-29
1.58683e-29
1.58618e-29
1.58544e-29
1.5846e-29
1.58368e-29
1.58267e-29
1.58158e-29
1.58043e-29
1.57923e-29
1.57799e-29
1.57672e-29
1.57546e-29
1.5742e-29
1.57298e-29
1.58383e-29
1.58377e-29
1.58364e-29
1.58345e-29
1.58319e-29
1.58287e-29
1.58248e-29
1.58203e-29
1.5815e-29
1.58092e-29
1.58027e-29
1.57956e-29
1.5788e-29
1.578e-29
1.57716e-29
1.57629e-29
1.57541e-29
1.57453e-29
1.57366e-29
1.57281e-29
1.58036e-29
1.58032e-29
1.58023e-29
1.58009e-29
1.57991e-29
1.57969e-29
1.57941e-29
1.57909e-29
1.57873e-29
1.57832e-29
1.57787e-29
1.57737e-29
1.57684e-29
1.57629e-29
1.5757e-29
1.5751e-29
1.57449e-29
1.57388e-29
1.57327e-29
1.57268e-29
1.57792e-29
1.57788e-29
1.57782e-29
1.57773e-29
1.5776e-29
1.57744e-29
1.57725e-29
1.57703e-29
1.57678e-29
1.57649e-29
1.57618e-29
1.57584e-29
1.57547e-29
1.57508e-29
1.57468e-29
1.57426e-29
1.57384e-29
1.57342e-29
1.573e-29
1.57259e-29
1.5762e-29
1.57618e-29
1.57614e-29
1.57607e-29
1.57598e-29
1.57587e-29
1.57574e-29
1.57559e-29
1.57541e-29
1.57522e-29
1.575e-29
1.57476e-29
1.57451e-29
1.57424e-29
1.57397e-29
1.57368e-29
1.57339e-29
1.5731e-29
1.57281e-29
1.57253e-29
1.57501e-29
1.57499e-29
1.57496e-29
1.57492e-29
1.57486e-29
1.57478e-29
1.57469e-29
1.57458e-29
1.57446e-29
1.57433e-29
1.57418e-29
1.57402e-29
1.57384e-29
1.57366e-29
1.57347e-29
1.57327e-29
1.57308e-29
1.57288e-29
1.57268e-29
1.57249e-29
1.57418e-29
1.57417e-29
1.57415e-29
1.57412e-29
1.57408e-29
1.57402e-29
1.57396e-29
1.57389e-29
1.57381e-29
1.57371e-29
1.57361e-29
1.5735e-29
1.57338e-29
1.57326e-29
1.57313e-29
1.57299e-29
1.57286e-29
1.57272e-29
1.57259e-29
1.57246e-29
1.57361e-29
1.5736e-29
1.57359e-29
1.57357e-29
1.57354e-29
1.5735e-29
1.57346e-29
1.57341e-29
1.57335e-29
1.57329e-29
1.57322e-29
1.57315e-29
1.57307e-29
1.57298e-29
1.57289e-29
1.5728e-29
1.57271e-29
1.57262e-29
1.57253e-29
1.57244e-29
1.57322e-29
1.57322e-29
1.57321e-29
1.57319e-29
1.57317e-29
1.57315e-29
1.57312e-29
1.57308e-29
1.57305e-29
1.573e-29
1.57296e-29
1.5729e-29
1.57285e-29
1.57279e-29
1.57273e-29
1.57267e-29
1.57261e-29
1.57255e-29
1.57249e-29
1.57243e-29
1.57296e-29
1.57295e-29
1.57295e-29
1.57294e-29
1.57292e-29
1.57291e-29
1.57289e-29
1.57286e-29
1.57284e-29
1.57281e-29
1.57278e-29
1.57274e-29
1.5727e-29
1.57267e-29
1.57263e-29
1.57258e-29
1.57254e-29
1.5725e-29
1.57246e-29
1.57242e-29
1.57278e-29
1.57278e-29
1.57278e-29
1.57277e-29
1.57276e-29
1.57275e-29
1.57273e-29
1.57272e-29
1.5727e-29
1.57268e-29
1.57266e-29
1.57263e-29
1.57261e-29
1.57258e-29
1.57255e-29
1.57253e-29
1.5725e-29
1.57247e-29
1.57244e-29
1.57241e-29
1.57267e-29
1.57267e-29
1.57266e-29
1.57266e-29
1.57265e-29
1.57264e-29
1.57264e-29
1.57262e-29
1.57261e-29
1.5726e-29
1.57258e-29
1.57256e-29
1.57255e-29
1.57253e-29
1.57251e-29
1.57249e-29
1.57247e-29
1.57245e-29
1.57243e-29
1.57241e-29
1.5726e-29
1.5726e-29
1.5726e-29
1.5726e-29
1.57259e-29
1.57258e-29
1.57258e-29
1.57257e-29
1.57256e-29
1.57255e-29
1.57254e-29
1.57252e-29
1.57251e-29
1.5725e-29
1.57248e-29
1.57247e-29
1.57245e-29
1.57244e-29
1.57242e-29
1.57241e-29
1.57257e-29
1.57257e-29
1.57257e-29
1.57257e-29
1.57256e-29
1.57256e-29
1.57255e-29
1.57254e-29
1.57253e-29
1.57253e-29
1.57252e-29
1.5725e-29
1.57249e-29
1.57248e-29
1.57247e-29
1.57246e-29
1.57244e-29
1.57243e-29
1.57242e-29
1.5724e-29
)
;

boundaryField
{
    topWall
    {
        type            zeroGradient;
    }
    bottomWall
    {
        type            zeroGradient;
    }
    sideWallL
    {
        type            symmetry;
    }
    sideWallR
    {
        type            zeroGradient;
    }
    frontAndBack
    {
        type            empty;
    }
}


// ************************************************************************* //
