/*--------------------------------*- C++ -*----------------------------------*\
  =========                 |
  \\      /  F ield         | OpenFOAM: The Open Source CFD Toolbox
   \\    /   O peration     | Website:  https://openfoam.org
    \\  /    A nd           | Version:  7
     \\/     M anipulation  |
\*---------------------------------------------------------------------------*/
FoamFile
{
    version     2.0;
    format      ascii;
    class       volScalarField;
    location    "26";
    object      rhog;
}
// * * * * * * * * * * * * * * * * * * * * * * * * * * * * * * * * * * * * * //

dimensions      [1 -3 0 0 0 0 0];

internalField   nonuniform List<scalar> 
900
(
0.00177301
0.00177137
0.00176797
0.00176255
0.00175473
0.00174391
0.00172926
0.00170963
0.0016834
0.00164836
0.00160141
0.00153816
0.00145245
0.00133548
0.00117493
0.000954558
0.000659157
0.000306733
4.2724e-05
3.52129e-08
0.000124038
0.000123659
0.000122877
0.000121641
0.000119871
0.000117455
0.000114243
0.00011004
0.000104605
9.76545e-05
8.88748e-05
7.79753e-05
6.47968e-05
4.95304e-05
3.30887e-05
1.7549e-05
6.0747e-06
8.84488e-07
1.80746e-08
2.51714e-12
8.8519e-06
8.80333e-06
8.70348e-06
8.54688e-06
8.32526e-06
8.02754e-06
7.64014e-06
7.14769e-06
6.53488e-06
5.78996e-06
4.91092e-06
3.91528e-06
2.85287e-06
1.81701e-06
9.39748e-07
3.4768e-07
7.32566e-08
5.74723e-09
7.58211e-11
5.01049e-14
6.618e-07
6.56467e-07
6.45558e-07
6.28597e-07
6.04897e-07
5.73618e-07
5.33866e-07
4.84882e-07
4.26354e-07
3.58879e-07
2.84575e-07
2.07681e-07
1.34771e-07
7.3827e-08
3.15115e-08
9.24304e-09
1.52841e-09
1.05044e-10
1.98415e-12
8.61815e-15
5.35229e-08
5.29572e-08
5.18062e-08
5.00324e-08
4.75862e-08
4.4415e-08
4.04789e-08
3.57751e-08
3.03709e-08
2.44434e-08
1.8314e-08
1.2452e-08
7.41088e-09
3.66736e-09
1.40219e-09
3.73312e-10
6.00254e-11
4.88901e-12
1.74269e-13
3.45612e-15
4.83159e-09
4.76968e-09
4.64432e-09
4.45279e-09
4.19192e-09
3.85936e-09
3.45551e-09
2.98605e-09
2.46497e-09
1.91715e-09
1.37897e-09
8.94605e-10
5.06124e-10
2.38707e-10
8.84544e-11
2.38908e-11
4.31164e-12
4.80898e-13
3.32679e-14
2.03277e-15
5.00943e-10
4.9362e-10
4.78859e-10
4.56478e-10
4.26326e-10
3.88444e-10
3.43284e-10
2.9197e-10
2.36552e-10
1.8013e-10
1.26689e-10
8.04636e-11
4.48442e-11
2.11596e-11
8.09757e-12
2.39673e-12
5.25426e-13
8.40245e-14
1.0576e-14
1.45816e-15
6.11175e-11
6.01488e-11
5.82032e-11
5.52718e-11
5.13574e-11
4.64956e-11
4.07813e-11
3.4396e-11
2.76302e-11
2.0883e-11
1.46253e-11
9.31435e-12
5.27398e-12
2.58681e-12
1.06892e-12
3.62817e-13
9.98558e-14
2.27563e-14
4.75351e-15
1.17194e-15
8.94097e-12
8.79395e-12
8.49953e-12
8.05797e-12
7.47212e-12
6.75033e-12
5.9099e-12
4.98048e-12
4.00603e-12
3.04356e-12
2.15691e-12
1.4051e-12
8.27716e-13
4.33436e-13
1.98663e-13
7.89771e-14
2.74049e-14
8.62701e-15
2.71617e-15
1.00998e-15
1.5885e-12
1.56247e-12
1.51044e-12
1.43263e-12
1.32981e-12
1.2037e-12
1.05757e-12
8.96672e-13
7.28457e-13
5.62298e-13
4.08439e-13
2.76235e-13
1.72069e-13
9.77603e-14
5.03487e-14
2.35486e-14
1.01731e-14
4.23552e-15
1.83477e-15
9.10437e-16
3.45098e-13
3.3967e-13
3.28832e-13
3.12649e-13
2.91296e-13
2.65148e-13
2.34869e-13
2.01501e-13
1.66495e-13
1.31649e-13
9.89264e-14
7.01523e-14
4.66538e-14
2.89781e-14
1.68162e-14
9.19175e-15
4.83e-15
2.5312e-15
1.39247e-15
8.45736e-16
9.18295e-14
9.04942e-14
8.7828e-14
8.38473e-14
7.85936e-14
7.21527e-14
6.46753e-14
5.63953e-14
4.7637e-14
3.88043e-14
3.03443e-14
2.26873e-14
1.6174e-14
1.09929e-14
7.15209e-15
4.5008e-15
2.79072e-15
1.75089e-15
1.14582e-15
8.02004e-16
2.98615e-14
2.94753e-14
2.8704e-14
2.75512e-14
2.60271e-14
2.4153e-14
2.19666e-14
1.95271e-14
1.69177e-14
1.42432e-14
1.16228e-14
9.17634e-15
7.00714e-15
5.18564e-15
3.73921e-15
2.65228e-15
1.87651e-15
1.3469e-15
9.97422e-16
7.71612e-16
1.17999e-14
1.16698e-14
1.14098e-14
1.10205e-14
1.05045e-14
9.86715e-15
9.119e-15
8.27671e-15
7.36425e-15
6.41269e-15
5.45845e-15
4.53997e-15
3.69307e-15
2.94605e-15
2.31599e-15
1.80727e-15
1.41287e-15
1.11772e-15
9.03053e-16
7.50066e-16
5.61019e-15
5.55982e-15
5.459e-15
5.30776e-15
5.10661e-15
4.85702e-15
4.56201e-15
4.22673e-15
3.85886e-15
3.46867e-15
3.06869e-15
2.67276e-15
2.29472e-15
1.94675e-15
1.63798e-15
1.37359e-15
1.15461e-15
9.78557e-16
8.40561e-16
7.34569e-16
3.1574e-15
3.13531e-15
3.09106e-15
3.02453e-15
2.93574e-15
2.82506e-15
2.69335e-15
2.54232e-15
2.37462e-15
2.19397e-15
2.00514e-15
1.8136e-15
1.6252e-15
1.44552e-15
1.27937e-15
1.13026e-15
1.00019e-15
8.8967e-16
7.97928e-16
7.23309e-16
2.05463e-15
2.04385e-15
2.02223e-15
1.98966e-15
1.94606e-15
1.89146e-15
1.82611e-15
1.75057e-15
1.66581e-15
1.57328e-15
1.47495e-15
1.37316e-15
1.27056e-15
1.16989e-15
1.07369e-15
9.84124e-16
9.02811e-16
8.3072e-16
7.682e-16
7.15069e-16
1.50313e-15
1.49737e-15
1.48581e-15
1.46837e-15
1.44496e-15
1.41554e-15
1.38014e-15
1.33895e-15
1.29233e-15
1.24088e-15
1.18546e-15
1.12716e-15
1.06724e-15
1.00712e-15
9.48181e-16
8.9174e-16
8.38905e-16
7.90522e-16
7.47137e-16
7.09011e-16
1.20214e-15
1.19883e-15
1.19218e-15
1.18212e-15
1.16861e-15
1.15157e-15
1.13098e-15
1.1069e-15
1.07947e-15
1.04893e-15
1.01569e-15
9.80268e-16
9.43328e-16
9.05613e-16
8.67919e-16
8.31039e-16
7.95704e-16
7.62542e-16
7.32044e-16
7.04544e-16
1.02597e-15
1.02395e-15
1.01989e-15
1.01375e-15
1.00547e-15
9.95023e-16
9.82363e-16
9.67494e-16
9.50465e-16
9.31392e-16
9.10463e-16
8.87952e-16
8.64209e-16
8.39654e-16
8.14753e-16
7.89994e-16
7.65854e-16
7.42777e-16
7.21141e-16
7.01247e-16
9.17039e-16
9.15748e-16
9.13152e-16
9.09223e-16
9.03926e-16
8.97225e-16
8.89092e-16
8.79512e-16
8.68503e-16
8.56114e-16
8.42443e-16
8.27636e-16
8.11891e-16
7.95453e-16
7.78602e-16
7.61646e-16
7.44899e-16
7.28666e-16
7.13223e-16
6.98811e-16
8.46776e-16
8.45922e-16
8.44202e-16
8.41599e-16
8.38088e-16
8.33643e-16
8.28241e-16
8.21868e-16
8.14527e-16
8.0624e-16
7.97059e-16
7.87068e-16
7.76383e-16
7.6515e-16
7.53546e-16
7.41767e-16
7.30022e-16
7.18518e-16
7.07456e-16
6.97014e-16
7.9998e-16
7.99398e-16
7.98229e-16
7.96459e-16
7.94071e-16
7.91046e-16
7.87369e-16
7.83027e-16
7.78018e-16
7.72353e-16
7.66063e-16
7.59194e-16
7.51819e-16
7.4403e-16
7.35939e-16
7.27675e-16
7.19377e-16
7.11188e-16
7.03248e-16
6.9569e-16
7.68059e-16
7.67656e-16
7.66845e-16
7.65618e-16
7.63963e-16
7.61867e-16
7.59319e-16
7.56309e-16
7.52835e-16
7.48902e-16
7.44529e-16
7.39745e-16
7.34595e-16
7.29138e-16
7.23449e-16
7.17612e-16
7.11723e-16
7.05878e-16
7.00178e-16
6.94717e-16
7.45905e-16
7.45621e-16
7.45052e-16
7.44189e-16
7.43027e-16
7.41556e-16
7.39768e-16
7.37656e-16
7.35219e-16
7.3246e-16
7.29389e-16
7.26027e-16
7.22402e-16
7.18554e-16
7.14532e-16
7.10394e-16
7.06203e-16
7.02029e-16
6.9794e-16
6.94003e-16
7.30339e-16
7.30138e-16
7.29734e-16
7.29123e-16
7.28299e-16
7.27258e-16
7.25993e-16
7.245e-16
7.22777e-16
7.20828e-16
7.18658e-16
7.16282e-16
7.13718e-16
7.10994e-16
7.08143e-16
7.05203e-16
7.0222e-16
6.99239e-16
6.96311e-16
6.93482e-16
7.19312e-16
7.19169e-16
7.18881e-16
7.18445e-16
7.17859e-16
7.17118e-16
7.16218e-16
7.15158e-16
7.13935e-16
7.12552e-16
7.11014e-16
7.0933e-16
7.07512e-16
7.0558e-16
7.03557e-16
7.01468e-16
6.99345e-16
6.9722e-16
6.95128e-16
6.93102e-16
7.11461e-16
7.11359e-16
7.11153e-16
7.10842e-16
7.10423e-16
7.09894e-16
7.09253e-16
7.08498e-16
7.07629e-16
7.06646e-16
7.05554e-16
7.04359e-16
7.0307e-16
7.017e-16
7.00264e-16
6.98782e-16
6.97273e-16
6.95762e-16
6.94272e-16
6.92826e-16
7.05857e-16
7.05783e-16
7.05636e-16
7.05413e-16
7.05114e-16
7.04737e-16
7.0428e-16
7.03743e-16
7.03124e-16
7.02426e-16
7.01651e-16
7.00804e-16
6.9989e-16
6.98919e-16
6.97903e-16
6.96853e-16
6.95784e-16
6.94712e-16
6.93655e-16
6.92627e-16
7.01853e-16
7.018e-16
7.01695e-16
7.01536e-16
7.01323e-16
7.01054e-16
7.00729e-16
7.00346e-16
6.99907e-16
6.99412e-16
6.98863e-16
6.98263e-16
6.97617e-16
6.96931e-16
6.96212e-16
6.95471e-16
6.94716e-16
6.93959e-16
6.93211e-16
6.92484e-16
6.98995e-16
6.98957e-16
6.98882e-16
6.98769e-16
6.98617e-16
6.98426e-16
6.98195e-16
6.97924e-16
6.97613e-16
6.97263e-16
6.96875e-16
6.96451e-16
6.95996e-16
6.95512e-16
6.95006e-16
6.94484e-16
6.93953e-16
6.9342e-16
6.92893e-16
6.92381e-16
6.96959e-16
6.96932e-16
6.96879e-16
6.96799e-16
6.96691e-16
6.96556e-16
6.96392e-16
6.96201e-16
6.95981e-16
6.95734e-16
6.95461e-16
6.95163e-16
6.94843e-16
6.94503e-16
6.94148e-16
6.93782e-16
6.9341e-16
6.93036e-16
6.92667e-16
6.92308e-16
6.95513e-16
6.95494e-16
6.95457e-16
6.954e-16
6.95324e-16
6.95228e-16
6.95113e-16
6.94978e-16
6.94824e-16
6.9465e-16
6.94458e-16
6.9425e-16
6.94026e-16
6.93788e-16
6.9354e-16
6.93285e-16
6.93025e-16
6.92764e-16
6.92507e-16
6.92256e-16
6.9449e-16
6.94477e-16
6.9445e-16
6.9441e-16
6.94357e-16
6.94289e-16
6.94209e-16
6.94114e-16
6.94006e-16
6.93885e-16
6.93751e-16
6.93605e-16
6.93449e-16
6.93284e-16
6.93111e-16
6.92934e-16
6.92753e-16
6.92572e-16
6.92393e-16
6.92219e-16
6.93769e-16
6.93759e-16
6.93741e-16
6.93713e-16
6.93675e-16
6.93628e-16
6.93572e-16
6.93506e-16
6.93431e-16
6.93346e-16
6.93253e-16
6.93152e-16
6.93044e-16
6.9293e-16
6.9281e-16
6.92687e-16
6.92562e-16
6.92437e-16
6.92314e-16
6.92193e-16
6.93263e-16
6.93256e-16
6.93243e-16
6.93224e-16
6.93198e-16
6.93165e-16
6.93126e-16
6.9308e-16
6.93028e-16
6.9297e-16
6.92905e-16
6.92836e-16
6.92761e-16
6.92682e-16
6.926e-16
6.92515e-16
6.92429e-16
6.92343e-16
6.92258e-16
6.92175e-16
6.9291e-16
6.92905e-16
6.92896e-16
6.92883e-16
6.92865e-16
6.92842e-16
6.92815e-16
6.92784e-16
6.92748e-16
6.92707e-16
6.92663e-16
6.92615e-16
6.92564e-16
6.9251e-16
6.92453e-16
6.92395e-16
6.92336e-16
6.92278e-16
6.92219e-16
6.92163e-16
6.92665e-16
6.92662e-16
6.92655e-16
6.92646e-16
6.92634e-16
6.92618e-16
6.926e-16
6.92578e-16
6.92553e-16
6.92526e-16
6.92495e-16
6.92463e-16
6.92427e-16
6.9239e-16
6.92352e-16
6.92313e-16
6.92272e-16
6.92232e-16
6.92193e-16
6.92154e-16
6.92496e-16
6.92494e-16
6.92489e-16
6.92483e-16
6.92475e-16
6.92464e-16
6.92451e-16
6.92436e-16
6.92419e-16
6.92401e-16
6.9238e-16
6.92358e-16
6.92334e-16
6.92309e-16
6.92282e-16
6.92256e-16
6.92228e-16
6.92201e-16
6.92174e-16
6.92148e-16
6.9238e-16
6.92379e-16
6.92376e-16
6.92371e-16
6.92366e-16
6.92358e-16
6.9235e-16
6.9234e-16
6.92328e-16
6.92315e-16
6.92301e-16
6.92286e-16
6.9227e-16
6.92253e-16
6.92235e-16
6.92217e-16
6.92198e-16
6.9218e-16
6.92162e-16
6.92144e-16
6.92302e-16
6.92301e-16
6.92299e-16
6.92296e-16
6.92292e-16
6.92287e-16
6.92281e-16
6.92274e-16
6.92266e-16
6.92258e-16
6.92248e-16
6.92238e-16
6.92227e-16
6.92215e-16
6.92203e-16
6.92191e-16
6.92178e-16
6.92166e-16
6.92153e-16
6.92142e-16
6.9225e-16
6.92249e-16
6.92248e-16
6.92246e-16
6.92243e-16
6.9224e-16
6.92235e-16
6.92231e-16
6.92225e-16
6.92219e-16
6.92213e-16
6.92206e-16
6.92198e-16
6.9219e-16
6.92182e-16
6.92173e-16
6.92165e-16
6.92156e-16
6.92148e-16
6.9214e-16
6.92216e-16
6.92216e-16
6.92215e-16
6.92213e-16
6.92212e-16
6.92209e-16
6.92206e-16
6.92203e-16
6.92199e-16
6.92195e-16
6.9219e-16
6.92185e-16
6.9218e-16
6.92174e-16
6.92168e-16
6.92162e-16
6.92156e-16
6.9215e-16
6.92144e-16
6.92139e-16
6.92197e-16
6.92196e-16
6.92195e-16
6.92194e-16
6.92193e-16
6.92191e-16
6.92189e-16
6.92186e-16
6.92183e-16
6.9218e-16
6.92177e-16
6.92173e-16
6.92169e-16
6.92165e-16
6.9216e-16
6.92156e-16
6.92151e-16
6.92147e-16
6.92142e-16
6.92138e-16
6.92187e-16
6.92187e-16
6.92186e-16
6.92186e-16
6.92184e-16
6.92183e-16
6.92181e-16
6.92179e-16
6.92176e-16
6.92173e-16
6.9217e-16
6.92167e-16
6.92164e-16
6.9216e-16
6.92156e-16
6.92153e-16
6.92149e-16
6.92145e-16
6.92141e-16
6.92138e-16
)
;

boundaryField
{
    topWall
    {
        type            calculated;
        value           uniform 0;
    }
    bottomWall
    {
        type            zeroGradient;
    }
    sideWallL
    {
        type            symmetry;
    }
    sideWallR
    {
        type            calculated;
        value           uniform 0;
    }
    frontAndBack
    {
        type            empty;
    }
}


// ************************************************************************* //
