/*--------------------------------*- C++ -*----------------------------------*\
  =========                 |
  \\      /  F ield         | OpenFOAM: The Open Source CFD Toolbox
   \\    /   O peration     | Website:  https://openfoam.org
    \\  /    A nd           | Version:  7
     \\/     M anipulation  |
\*---------------------------------------------------------------------------*/
FoamFile
{
    version     2.0;
    format      ascii;
    class       volScalarField;
    location    "26";
    object      rhois;
}
// * * * * * * * * * * * * * * * * * * * * * * * * * * * * * * * * * * * * * //

dimensions      [1 -3 0 0 0 0 0];

internalField   nonuniform List<scalar> 
900
(
0.0121357
0.0121278
0.0121113
0.0120849
0.0120468
0.0119939
0.0119221
0.0118253
0.0116954
0.0115205
0.0112842
0.0109621
0.0105189
0.00990096
0.00902607
0.00776657
0.00593859
0.00340833
0.000814087
4.74441e-06
0.00172534
0.00172159
0.00171383
0.00170152
0.00168382
0.0016595
0.0016269
0.00158379
0.00152725
0.00145361
0.00135829
0.00123602
0.00108136
0.00089046
0.000664989
0.000420041
0.000194704
4.81986e-05
2.89185e-06
4.99181e-09
0.000248912
0.000247939
0.000245932
0.00024277
0.000238261
0.000232143
0.000224073
0.00021363
0.000200326
0.000183644
0.000163129
0.000138564
0.000110282
7.96286e-05
4.9455e-05
2.41068e-05
7.82531e-06
1.24743e-06
5.56897e-08
3.17074e-10
3.72784e-05
3.70645e-05
3.66251e-05
3.59372e-05
3.49661e-05
3.36661e-05
3.19821e-05
2.98541e-05
2.7226e-05
2.40609e-05
2.03682e-05
1.62403e-05
1.18971e-05
7.71266e-06
4.17674e-06
1.72659e-06
4.73014e-07
6.92854e-08
4.10542e-09
9.41225e-11
5.93601e-06
5.89139e-06
5.80013e-06
5.65824e-06
5.45997e-06
5.19822e-06
4.86535e-06
4.45459e-06
3.96244e-06
3.39213e-06
2.75829e-06
2.09166e-06
1.44133e-06
8.69856e-07
4.36271e-07
1.68893e-07
4.56751e-08
7.65999e-09
7.33933e-10
5.04213e-11
1.02851e-06
1.01916e-06
1.0001e-06
9.70673e-07
9.29958e-07
8.76919e-07
8.10621e-07
7.30574e-07
6.37231e-07
5.3261e-07
4.20932e-07
3.0897e-07
2.05625e-07
1.20164e-07
5.91338e-08
2.32569e-08
6.89357e-09
1.46962e-09
2.31181e-10
3.50991e-11
1.98046e-07
1.95998e-07
1.91841e-07
1.8546e-07
1.7671e-07
1.65445e-07
1.51572e-07
1.35127e-07
1.16369e-07
9.58841e-08
7.4656e-08
5.40563e-08
3.56679e-08
2.09147e-08
1.05799e-08
4.47265e-09
1.5392e-09
4.30819e-10
1.05283e-10
2.79505e-11
4.31514e-08
4.26697e-08
4.16949e-08
4.02068e-08
3.8181e-08
3.55979e-08
3.24543e-08
2.87798e-08
2.46555e-08
2.02301e-08
1.57276e-08
1.14336e-08
7.65154e-09
4.63055e-09
2.488e-09
1.16887e-09
4.78225e-10
1.74424e-10
6.12823e-11
2.40374e-11
1.0791e-08
1.06668e-08
1.04162e-08
1.00352e-08
9.5194e-09
8.86638e-09
8.07831e-09
7.16579e-09
6.15164e-09
5.07383e-09
3.98585e-09
2.95243e-09
2.03945e-09
1.29924e-09
7.56338e-10
4.00943e-10
1.95289e-10
9.01968e-11
4.20982e-11
2.16753e-11
3.12877e-09
3.09323e-09
3.02161e-09
2.91304e-09
2.76665e-09
2.58215e-09
2.36062e-09
2.10539e-09
1.82294e-09
1.5235e-09
1.22098e-09
9.31805e-10
6.72488e-10
4.56368e-10
2.90481e-10
1.74061e-10
9.95972e-11
5.60239e-11
3.23716e-11
2.01554e-11
1.05843e-09
1.04704e-09
1.02413e-09
9.89461e-10
9.42812e-10
8.84157e-10
8.13877e-10
7.33007e-10
6.43479e-10
5.48274e-10
4.51382e-10
3.57499e-10
2.71412e-10
1.97164e-10
1.37256e-10
9.21913e-11
6.05875e-11
3.98209e-11
2.68921e-11
1.91339e-11
4.18884e-10
4.14798e-10
4.06579e-10
3.94151e-10
3.77441e-10
3.56441e-10
3.31272e-10
3.02262e-10
2.70026e-10
2.35506e-10
1.99969e-10
1.64924e-10
1.31948e-10
1.02459e-10
7.74692e-11
5.74308e-11
4.22073e-11
3.12003e-11
2.35648e-11
1.84263e-11
1.93712e-10
1.92073e-10
1.88777e-10
1.83792e-10
1.77089e-10
1.68657e-10
1.58531e-10
1.46819e-10
1.33727e-10
1.19578e-10
1.04814e-10
8.99729e-11
7.56378e-11
6.23643e-11
5.06016e-11
4.06293e-11
3.25296e-11
2.62053e-11
2.14321e-11
1.79253e-11
1.04016e-10
1.03287e-10
1.01819e-10
9.95987e-11
9.661e-11
9.28439e-11
8.8308e-11
8.30372e-11
7.71046e-11
7.0629e-11
6.3778e-11
5.67614e-11
4.98159e-11
4.31807e-11
3.70684e-11
3.16393e-11
2.69842e-11
2.31219e-11
2.00101e-11
1.7565e-11
6.40315e-11
6.36746e-11
6.29563e-11
6.18687e-11
6.04029e-11
5.8552e-11
5.63154e-11
5.37037e-11
5.07435e-11
4.74812e-11
4.39848e-11
4.03428e-11
3.66594e-11
3.30453e-11
2.9607e-11
2.64354e-11
2.35964e-11
2.11267e-11
1.90343e-11
1.73032e-11
4.43478e-11
4.41581e-11
4.37761e-11
4.31972e-11
4.24159e-11
4.14272e-11
4.02288e-11
3.8823e-11
3.72195e-11
3.5437e-11
3.35049e-11
3.14631e-11
2.93605e-11
2.72517e-11
2.51928e-11
2.32359e-11
2.14243e-11
1.97897e-11
1.83503e-11
1.71113e-11
3.38005e-11
3.36922e-11
3.3474e-11
3.31433e-11
3.26964e-11
3.21299e-11
3.14412e-11
3.06303e-11
2.97003e-11
2.8659e-11
2.75198e-11
2.63016e-11
2.50289e-11
2.373e-11
2.24357e-11
2.11765e-11
1.99803e-11
1.88702e-11
1.78634e-11
1.697e-11
2.77361e-11
2.76705e-11
2.75384e-11
2.73381e-11
2.70671e-11
2.67231e-11
2.6304e-11
2.5809e-11
2.5239e-11
2.45971e-11
2.38897e-11
2.31263e-11
2.23196e-11
2.14852e-11
2.06407e-11
1.98043e-11
1.89939e-11
1.82256e-11
1.75129e-11
1.68656e-11
2.40442e-11
2.40025e-11
2.39187e-11
2.37914e-11
2.36192e-11
2.34003e-11
2.31334e-11
2.28173e-11
2.24522e-11
2.20394e-11
2.1582e-11
2.10849e-11
2.05552e-11
2.00018e-11
1.94349e-11
1.8866e-11
1.83065e-11
1.77674e-11
1.72587e-11
1.67884e-11
2.16923e-11
2.16648e-11
2.16095e-11
2.15256e-11
2.1412e-11
2.12676e-11
2.10914e-11
2.08824e-11
2.06405e-11
2.03661e-11
2.0061e-11
1.97278e-11
1.93705e-11
1.89944e-11
1.86059e-11
1.82121e-11
1.78204e-11
1.74385e-11
1.70733e-11
1.67312e-11
2.01401e-11
2.01215e-11
2.0084e-11
2.0027e-11
1.995e-11
1.9852e-11
1.97323e-11
1.95904e-11
1.94259e-11
1.9239e-11
1.90307e-11
1.88024e-11
1.85566e-11
1.82964e-11
1.8026e-11
1.77499e-11
1.74731e-11
1.72008e-11
1.69378e-11
1.66888e-11
1.90877e-11
1.90748e-11
1.90488e-11
1.90093e-11
1.89559e-11
1.8888e-11
1.88051e-11
1.87067e-11
1.85927e-11
1.84631e-11
1.83184e-11
1.81594e-11
1.79878e-11
1.78056e-11
1.76154e-11
1.74201e-11
1.72232e-11
1.70282e-11
1.68385e-11
1.66575e-11
1.83596e-11
1.83505e-11
1.83321e-11
1.83043e-11
1.82667e-11
1.82189e-11
1.81607e-11
1.80915e-11
1.80114e-11
1.79203e-11
1.78185e-11
1.77067e-11
1.75857e-11
1.74569e-11
1.73221e-11
1.71832e-11
1.70426e-11
1.69026e-11
1.67658e-11
1.66344e-11
1.78483e-11
1.78418e-11
1.78287e-11
1.78089e-11
1.77821e-11
1.77482e-11
1.77068e-11
1.76577e-11
1.76009e-11
1.75363e-11
1.74641e-11
1.73848e-11
1.72989e-11
1.72074e-11
1.71114e-11
1.70123e-11
1.69117e-11
1.68112e-11
1.67125e-11
1.66174e-11
1.74854e-11
1.74808e-11
1.74714e-11
1.74572e-11
1.7438e-11
1.74137e-11
1.73841e-11
1.73491e-11
1.73085e-11
1.72625e-11
1.7211e-11
1.71545e-11
1.70933e-11
1.70281e-11
1.69596e-11
1.68888e-11
1.68167e-11
1.67446e-11
1.66736e-11
1.6605e-11
1.72262e-11
1.72229e-11
1.72161e-11
1.72059e-11
1.71921e-11
1.71746e-11
1.71534e-11
1.71283e-11
1.70992e-11
1.70663e-11
1.70295e-11
1.69892e-11
1.69455e-11
1.68989e-11
1.685e-11
1.67994e-11
1.67479e-11
1.66962e-11
1.66452e-11
1.65959e-11
1.70402e-11
1.70378e-11
1.70329e-11
1.70256e-11
1.70156e-11
1.70031e-11
1.69878e-11
1.69698e-11
1.6949e-11
1.69254e-11
1.68991e-11
1.68702e-11
1.68391e-11
1.68058e-11
1.67709e-11
1.67348e-11
1.6698e-11
1.66611e-11
1.66246e-11
1.65892e-11
1.69065e-11
1.69048e-11
1.69013e-11
1.68959e-11
1.68888e-11
1.68798e-11
1.68688e-11
1.68559e-11
1.68409e-11
1.68241e-11
1.68053e-11
1.67847e-11
1.67625e-11
1.67388e-11
1.67139e-11
1.66882e-11
1.6662e-11
1.66357e-11
1.66097e-11
1.65844e-11
1.68104e-11
1.68091e-11
1.68066e-11
1.68028e-11
1.67976e-11
1.67911e-11
1.67833e-11
1.6774e-11
1.67633e-11
1.67513e-11
1.67379e-11
1.67232e-11
1.67074e-11
1.66906e-11
1.66729e-11
1.66547e-11
1.6636e-11
1.66174e-11
1.65989e-11
1.65809e-11
1.67413e-11
1.67404e-11
1.67386e-11
1.67359e-11
1.67322e-11
1.67275e-11
1.67219e-11
1.67153e-11
1.67077e-11
1.66991e-11
1.66896e-11
1.66792e-11
1.66679e-11
1.6656e-11
1.66435e-11
1.66306e-11
1.66174e-11
1.66042e-11
1.65911e-11
1.65784e-11
1.66918e-11
1.66912e-11
1.66899e-11
1.66879e-11
1.66853e-11
1.6682e-11
1.6678e-11
1.66733e-11
1.66679e-11
1.66618e-11
1.6655e-11
1.66477e-11
1.66397e-11
1.66313e-11
1.66225e-11
1.66134e-11
1.66041e-11
1.65948e-11
1.65856e-11
1.65766e-11
1.66565e-11
1.6656e-11
1.66551e-11
1.66537e-11
1.66518e-11
1.66495e-11
1.66466e-11
1.66433e-11
1.66395e-11
1.66352e-11
1.66304e-11
1.66252e-11
1.66196e-11
1.66137e-11
1.66075e-11
1.66011e-11
1.65946e-11
1.65881e-11
1.65816e-11
1.65753e-11
1.66313e-11
1.6631e-11
1.66303e-11
1.66293e-11
1.6628e-11
1.66263e-11
1.66243e-11
1.6622e-11
1.66193e-11
1.66163e-11
1.66129e-11
1.66093e-11
1.66054e-11
1.66012e-11
1.65969e-11
1.65924e-11
1.65879e-11
1.65833e-11
1.65788e-11
1.65744e-11
1.66135e-11
1.66132e-11
1.66128e-11
1.66121e-11
1.66111e-11
1.661e-11
1.66085e-11
1.66069e-11
1.6605e-11
1.66029e-11
1.66006e-11
1.6598e-11
1.65953e-11
1.65924e-11
1.65894e-11
1.65863e-11
1.65831e-11
1.65799e-11
1.65768e-11
1.65738e-11
1.66009e-11
1.66007e-11
1.66004e-11
1.65999e-11
1.65992e-11
1.65984e-11
1.65974e-11
1.65963e-11
1.6595e-11
1.65935e-11
1.65919e-11
1.65901e-11
1.65882e-11
1.65862e-11
1.65841e-11
1.6582e-11
1.65798e-11
1.65776e-11
1.65754e-11
1.65733e-11
1.6592e-11
1.65919e-11
1.65917e-11
1.65913e-11
1.65909e-11
1.65903e-11
1.65896e-11
1.65888e-11
1.65879e-11
1.65869e-11
1.65858e-11
1.65845e-11
1.65832e-11
1.65819e-11
1.65804e-11
1.65789e-11
1.65774e-11
1.65759e-11
1.65744e-11
1.6573e-11
1.65858e-11
1.65858e-11
1.65856e-11
1.65854e-11
1.65851e-11
1.65847e-11
1.65842e-11
1.65836e-11
1.6583e-11
1.65823e-11
1.65815e-11
1.65807e-11
1.65798e-11
1.65788e-11
1.65779e-11
1.65768e-11
1.65758e-11
1.65748e-11
1.65738e-11
1.65728e-11
1.65816e-11
1.65815e-11
1.65814e-11
1.65812e-11
1.6581e-11
1.65807e-11
1.65804e-11
1.658e-11
1.65796e-11
1.65791e-11
1.65786e-11
1.6578e-11
1.65774e-11
1.65768e-11
1.65761e-11
1.65754e-11
1.65747e-11
1.6574e-11
1.65733e-11
1.65726e-11
1.65786e-11
1.65786e-11
1.65785e-11
1.65784e-11
1.65782e-11
1.6578e-11
1.65778e-11
1.65776e-11
1.65773e-11
1.65769e-11
1.65766e-11
1.65762e-11
1.65758e-11
1.65753e-11
1.65749e-11
1.65744e-11
1.65739e-11
1.65734e-11
1.6573e-11
1.65725e-11
1.65766e-11
1.65766e-11
1.65765e-11
1.65764e-11
1.65763e-11
1.65762e-11
1.6576e-11
1.65759e-11
1.65757e-11
1.65754e-11
1.65752e-11
1.65749e-11
1.65746e-11
1.65743e-11
1.6574e-11
1.65737e-11
1.65734e-11
1.65731e-11
1.65728e-11
1.65724e-11
1.65752e-11
1.65752e-11
1.65752e-11
1.65751e-11
1.6575e-11
1.65749e-11
1.65748e-11
1.65747e-11
1.65746e-11
1.65744e-11
1.65743e-11
1.65741e-11
1.65739e-11
1.65737e-11
1.65735e-11
1.65733e-11
1.6573e-11
1.65728e-11
1.65726e-11
1.65724e-11
1.65743e-11
1.65743e-11
1.65743e-11
1.65742e-11
1.65742e-11
1.65741e-11
1.6574e-11
1.6574e-11
1.65739e-11
1.65738e-11
1.65736e-11
1.65735e-11
1.65734e-11
1.65733e-11
1.65731e-11
1.6573e-11
1.65728e-11
1.65727e-11
1.65725e-11
1.65724e-11
1.65737e-11
1.65737e-11
1.65737e-11
1.65737e-11
1.65736e-11
1.65736e-11
1.65735e-11
1.65735e-11
1.65734e-11
1.65733e-11
1.65733e-11
1.65732e-11
1.65731e-11
1.6573e-11
1.65729e-11
1.65728e-11
1.65727e-11
1.65726e-11
1.65724e-11
1.65723e-11
1.65734e-11
1.65734e-11
1.65733e-11
1.65733e-11
1.65733e-11
1.65733e-11
1.65732e-11
1.65732e-11
1.65731e-11
1.65731e-11
1.6573e-11
1.65729e-11
1.65729e-11
1.65728e-11
1.65727e-11
1.65726e-11
1.65726e-11
1.65725e-11
1.65724e-11
1.65723e-11
1.65732e-11
1.65732e-11
1.65732e-11
1.65732e-11
1.65731e-11
1.65731e-11
1.65731e-11
1.65731e-11
1.6573e-11
1.6573e-11
1.65729e-11
1.65729e-11
1.65728e-11
1.65727e-11
1.65727e-11
1.65726e-11
1.65725e-11
1.65725e-11
1.65724e-11
1.65723e-11
)
;

boundaryField
{
    topWall
    {
        type            zeroGradient;
    }
    bottomWall
    {
        type            zeroGradient;
    }
    sideWallL
    {
        type            symmetry;
    }
    sideWallR
    {
        type            zeroGradient;
    }
    frontAndBack
    {
        type            empty;
    }
}


// ************************************************************************* //
