/*--------------------------------*- C++ -*----------------------------------*\
  =========                 |
  \\      /  F ield         | OpenFOAM: The Open Source CFD Toolbox
   \\    /   O peration     | Website:  https://openfoam.org
    \\  /    A nd           | Version:  7
     \\/     M anipulation  |
\*---------------------------------------------------------------------------*/
FoamFile
{
    version     2.0;
    format      ascii;
    class       volScalarField;
    location    "26";
    object      rhot2;
}
// * * * * * * * * * * * * * * * * * * * * * * * * * * * * * * * * * * * * * //

dimensions      [1 -3 0 0 0 0 0];

internalField   nonuniform List<scalar> 
900
(
5.11267e-06
5.10379e-06
5.08542e-06
5.05626e-06
5.01425e-06
4.9564e-06
4.87856e-06
4.7751e-06
4.63849e-06
4.45879e-06
4.22309e-06
3.91501e-06
3.51479e-06
3.00115e-06
2.35806e-06
1.59436e-06
7.93095e-07
1.87128e-07
4.51202e-09
6.70766e-15
3.34981e-08
3.33057e-08
3.291e-08
3.2289e-08
3.14095e-08
3.02272e-08
2.86876e-08
2.673e-08
2.42947e-08
2.1339e-08
1.78633e-08
1.3954e-08
9.83741e-09
5.92249e-09
2.76402e-09
8.33904e-10
1.12318e-10
2.94476e-12
1.89251e-15
1.00598e-22
2.26182e-10
2.23849e-10
2.19089e-10
2.11719e-10
2.0149e-10
1.88121e-10
1.71368e-10
1.5113e-10
1.27617e-10
1.0156e-10
7.44288e-11
4.85254e-11
2.66911e-11
1.13851e-11
3.277e-12
5.00911e-13
2.64383e-14
2.16133e-16
6.12879e-20
6.35325e-26
1.66894e-12
1.64369e-12
1.5926e-12
1.51467e-12
1.40884e-12
1.27466e-12
1.11323e-12
9.28464e-13
7.28429e-13
5.26288e-13
3.39702e-13
1.87457e-13
8.28683e-14
2.66026e-14
5.33127e-15
5.26247e-16
1.76131e-17
1.1264e-19
6.35252e-23
2.34876e-27
1.43106e-14
1.40271e-14
1.34583e-14
1.26033e-14
1.14674e-14
1.00698e-14
8.45393e-15
6.69757e-15
4.91816e-15
3.26556e-15
1.8943e-15
9.14862e-16
3.43646e-16
9.1119e-17
1.48499e-17
1.22283e-18
3.89329e-20
3.44893e-22
6.51221e-25
4.26573e-28
1.51334e-16
1.47703e-16
1.40478e-16
1.29768e-16
1.1582e-16
9.91197e-17
8.04851e-17
6.11242e-17
4.2583e-17
2.65132e-17
1.42447e-17
6.29941e-18
2.15185e-18
5.21581e-19
8.02376e-20
6.80387e-21
2.70302e-22
4.358e-24
2.90111e-26
1.58722e-28
2.08347e-18
2.02652e-18
1.91398e-18
1.74908e-18
1.53796e-18
1.29079e-18
1.02278e-18
7.53966e-19
5.07178e-19
3.03538e-19
1.56393e-19
6.64892e-20
2.20974e-20
5.36709e-21
8.78932e-22
8.88069e-23
5.11186e-24
1.63573e-25
3.39169e-27
8.55462e-29
3.90992e-20
3.79419e-20
3.56668e-20
3.23632e-20
2.81866e-20
2.33769e-20
1.82652e-20
1.32571e-20
8.77825e-21
5.18233e-21
2.65045e-21
1.13354e-21
3.88569e-22
1.01681e-22
1.92847e-23
2.53009e-24
2.24582e-25
1.40934e-26
7.62576e-28
5.69793e-29
1.03648e-21
1.00469e-21
9.42426e-22
8.52534e-22
7.39787e-22
6.11203e-22
4.76036e-22
3.45097e-22
2.2917e-22
1.36704e-22
7.1546e-23
3.19632e-23
1.18209e-23
3.50554e-24
8.10239e-25
1.43662e-25
1.98217e-26
2.29715e-27
2.69323e-28
4.32108e-29
3.97671e-23
3.85531e-23
3.61793e-23
3.27612e-23
2.84876e-23
2.36289e-23
1.85325e-23
1.35949e-23
9.20414e-24
5.66112e-24
3.1066e-24
1.49121e-24
6.13631e-25
2.12636e-25
6.13861e-26
1.48347e-26
3.10443e-27
6.10548e-28
1.30105e-28
3.5626e-29
2.23772e-24
2.17226e-24
2.04426e-24
1.85988e-24
1.62907e-24
1.36592e-24
1.08835e-24
8.16772e-25
5.7128e-25
3.67986e-25
2.155e-25
1.13259e-25
5.28148e-26
2.16969e-26
7.86377e-27
2.5561e-27
7.75127e-28
2.34918e-28
7.80721e-29
3.10592e-29
1.85367e-25
1.80364e-25
1.70567e-25
1.56413e-25
1.38606e-25
1.18146e-25
9.63105e-26
7.4569e-26
5.44114e-26
3.71053e-26
2.34516e-26
1.36372e-26
7.26181e-27
3.54179e-27
1.59531e-27
6.77029e-28
2.80274e-28
1.18813e-28
5.44304e-29
2.81362e-29
2.25226e-26
2.19838e-26
2.09258e-26
1.93896e-26
1.7442e-26
1.51785e-26
1.2723e-26
1.02219e-26
7.82959e-27
5.68724e-27
3.8993e-27
2.51558e-27
1.52657e-27
8.74987e-28
4.7858e-28
2.54284e-28
1.34625e-28
7.32053e-29
4.21092e-29
2.61832e-29
3.97269e-27
3.89206e-27
3.73315e-27
3.50097e-27
3.20376e-27
2.85356e-27
2.46639e-27
2.06184e-27
1.66157e-27
1.28693e-27
9.55983e-28
6.80709e-28
4.65468e-28
3.07221e-28
1.97508e-28
1.25322e-28
7.97902e-29
5.18908e-29
3.50317e-29
2.48377e-29
9.97599e-28
9.812e-28
9.48751e-28
9.01011e-28
8.39263e-28
7.65441e-28
6.82212e-28
5.92973e-28
5.01687e-28
4.12553e-28
3.2953e-28
2.55828e-28
1.93486e-28
1.43193e-28
1.04395e-28
7.56377e-29
5.50189e-29
4.0599e-29
3.06731e-29
2.38901e-29
3.45032e-28
3.40639e-28
3.31911e-28
3.18984e-28
3.02096e-28
2.81624e-28
2.58115e-28
2.32303e-28
2.05093e-28
1.77512e-28
1.5062e-28
1.25401e-28
1.02647e-28
8.28775e-29
6.6302e-29
5.28492e-29
4.22346e-29
3.40507e-29
2.78509e-29
2.32123e-29
1.56751e-28
1.55261e-28
1.52289e-28
1.47862e-28
1.42027e-28
1.34869e-28
1.26517e-28
1.17161e-28
1.07047e-28
9.64742e-29
8.57781e-29
7.53008e-29
6.53599e-29
5.62169e-29
4.80547e-29
4.09676e-29
3.49669e-29
2.99966e-29
2.59561e-29
2.27219e-29
8.85055e-29
8.78923e-29
8.66665e-29
8.48312e-29
8.2395e-29
7.93771e-29
7.58117e-29
7.17531e-29
6.72782e-29
6.24875e-29
5.75011e-29
5.24523e-29
4.74771e-29
4.27034e-29
3.82395e-29
3.41668e-29
3.05353e-29
2.73651e-29
2.465e-29
2.23645e-29
5.88607e-29
5.85673e-29
5.79797e-29
5.70966e-29
5.5918e-29
5.44474e-29
5.26933e-29
5.06725e-29
4.84114e-29
4.59471e-29
4.33276e-29
4.06098e-29
3.78561e-29
3.51309e-29
3.24949e-29
3.00013e-29
2.76924e-29
2.55975e-29
2.37327e-29
2.21027e-29
4.40733e-29
4.39159e-29
4.36002e-29
4.31245e-29
4.24872e-29
4.16878e-29
4.07278e-29
3.96123e-29
3.83507e-29
3.6958e-29
3.54549e-29
3.38676e-29
3.22269e-29
3.05663e-29
2.89203e-29
2.73219e-29
2.58006e-29
2.43805e-29
2.30799e-29
2.19103e-29
3.58955e-29
3.58036e-29
3.5619e-29
3.53404e-29
3.49661e-29
3.4495e-29
3.39265e-29
3.3262e-29
3.25049e-29
3.16616e-29
3.07416e-29
2.97578e-29
2.87263e-29
2.76655e-29
2.65954e-29
2.55363e-29
2.45079e-29
2.35278e-29
2.26109e-29
2.17688e-29
3.10169e-29
3.09597e-29
3.08449e-29
3.06713e-29
3.04378e-29
3.01433e-29
2.97867e-29
2.93683e-29
2.88892e-29
2.83523e-29
2.77622e-29
2.71257e-29
2.64517e-29
2.57505e-29
2.50344e-29
2.43158e-29
2.36079e-29
2.29229e-29
2.2272e-29
2.16646e-29
2.79411e-29
2.7904e-29
2.78292e-29
2.77162e-29
2.7564e-29
2.73718e-29
2.71387e-29
2.68645e-29
2.65495e-29
2.61951e-29
2.58036e-29
2.5379e-29
2.49261e-29
2.44514e-29
2.39621e-29
2.34665e-29
2.29731e-29
2.24903e-29
2.20262e-29
2.1588e-29
2.5923e-29
2.5898e-29
2.58478e-29
2.57718e-29
2.56695e-29
2.55401e-29
2.53832e-29
2.51983e-29
2.49855e-29
2.47455e-29
2.44796e-29
2.419e-29
2.38798e-29
2.35528e-29
2.32138e-29
2.28681e-29
2.25212e-29
2.21792e-29
2.18476e-29
2.15318e-29
2.45605e-29
2.45433e-29
2.45087e-29
2.44565e-29
2.43862e-29
2.42973e-29
2.41894e-29
2.40622e-29
2.39157e-29
2.37502e-29
2.35666e-29
2.33661e-29
2.31508e-29
2.2923e-29
2.26859e-29
2.24429e-29
2.21979e-29
2.19549e-29
2.17179e-29
2.14907e-29
2.36218e-29
2.36098e-29
2.35857e-29
2.35492e-29
2.35002e-29
2.34382e-29
2.33629e-29
2.32742e-29
2.31721e-29
2.30566e-29
2.29284e-29
2.27883e-29
2.26375e-29
2.24777e-29
2.23108e-29
2.21393e-29
2.19658e-29
2.1793e-29
2.16237e-29
2.14606e-29
2.29661e-29
2.29577e-29
2.29407e-29
2.2915e-29
2.28804e-29
2.28368e-29
2.27838e-29
2.27215e-29
2.26496e-29
2.25685e-29
2.24784e-29
2.23798e-29
2.22737e-29
2.2161e-29
2.20433e-29
2.1922e-29
2.1799e-29
2.16761e-29
2.15554e-29
2.14387e-29
2.2504e-29
2.2498e-29
2.24859e-29
2.24677e-29
2.24432e-29
2.24123e-29
2.23749e-29
2.23308e-29
2.22801e-29
2.22228e-29
2.21592e-29
2.20897e-29
2.20148e-29
2.19353e-29
2.1852e-29
2.17663e-29
2.16791e-29
2.15919e-29
2.15061e-29
2.14229e-29
2.21765e-29
2.21722e-29
2.21636e-29
2.21507e-29
2.21333e-29
2.21114e-29
2.20848e-29
2.20536e-29
2.20177e-29
2.19772e-29
2.19323e-29
2.18832e-29
2.18303e-29
2.17741e-29
2.17154e-29
2.16547e-29
2.15931e-29
2.15314e-29
2.14705e-29
2.14114e-29
2.19437e-29
2.19407e-29
2.19346e-29
2.19254e-29
2.1913e-29
2.18975e-29
2.18786e-29
2.18565e-29
2.18311e-29
2.18025e-29
2.17707e-29
2.17361e-29
2.16988e-29
2.16592e-29
2.16178e-29
2.1575e-29
2.15315e-29
2.1488e-29
2.1445e-29
2.14032e-29
2.17782e-29
2.17761e-29
2.17717e-29
2.17652e-29
2.17564e-29
2.17454e-29
2.17321e-29
2.17164e-29
2.16985e-29
2.16783e-29
2.16559e-29
2.16315e-29
2.16052e-29
2.15774e-29
2.15482e-29
2.15182e-29
2.14876e-29
2.1457e-29
2.14267e-29
2.13973e-29
2.16606e-29
2.16591e-29
2.1656e-29
2.16514e-29
2.16452e-29
2.16374e-29
2.1628e-29
2.1617e-29
2.16043e-29
2.15901e-29
2.15743e-29
2.15572e-29
2.15388e-29
2.15192e-29
2.14988e-29
2.14778e-29
2.14564e-29
2.14349e-29
2.14137e-29
2.13931e-29
2.15773e-29
2.15762e-29
2.1574e-29
2.15708e-29
2.15664e-29
2.15609e-29
2.15543e-29
2.15465e-29
2.15376e-29
2.15277e-29
2.15166e-29
2.15046e-29
2.14917e-29
2.14781e-29
2.14639e-29
2.14492e-29
2.14342e-29
2.14193e-29
2.14045e-29
2.13901e-29
2.15184e-29
2.15176e-29
2.15161e-29
2.15138e-29
2.15107e-29
2.15069e-29
2.15022e-29
2.14968e-29
2.14906e-29
2.14836e-29
2.14759e-29
2.14676e-29
2.14586e-29
2.14491e-29
2.14392e-29
2.1429e-29
2.14186e-29
2.14082e-29
2.1398e-29
2.1388e-29
2.14769e-29
2.14764e-29
2.14753e-29
2.14737e-29
2.14716e-29
2.14689e-29
2.14656e-29
2.14619e-29
2.14575e-29
2.14527e-29
2.14473e-29
2.14415e-29
2.14353e-29
2.14288e-29
2.14219e-29
2.14148e-29
2.14077e-29
2.14005e-29
2.13934e-29
2.13865e-29
2.14479e-29
2.14475e-29
2.14468e-29
2.14456e-29
2.14441e-29
2.14423e-29
2.144e-29
2.14374e-29
2.14344e-29
2.1431e-29
2.14274e-29
2.14234e-29
2.14191e-29
2.14145e-29
2.14098e-29
2.1405e-29
2.14e-29
2.13951e-29
2.13902e-29
2.13855e-29
2.14276e-29
2.14273e-29
2.14268e-29
2.14261e-29
2.1425e-29
2.14237e-29
2.14222e-29
2.14204e-29
2.14183e-29
2.1416e-29
2.14134e-29
2.14107e-29
2.14078e-29
2.14046e-29
2.14014e-29
2.13981e-29
2.13947e-29
2.13913e-29
2.1388e-29
2.13848e-29
2.14135e-29
2.14134e-29
2.1413e-29
2.14125e-29
2.14118e-29
2.14109e-29
2.14098e-29
2.14086e-29
2.14071e-29
2.14056e-29
2.14038e-29
2.14019e-29
2.13999e-29
2.13978e-29
2.13956e-29
2.13933e-29
2.1391e-29
2.13887e-29
2.13865e-29
2.13843e-29
2.14038e-29
2.14037e-29
2.14035e-29
2.14031e-29
2.14026e-29
2.1402e-29
2.14013e-29
2.14004e-29
2.13995e-29
2.13984e-29
2.13972e-29
2.13959e-29
2.13946e-29
2.13931e-29
2.13916e-29
2.13901e-29
2.13885e-29
2.1387e-29
2.13854e-29
2.13839e-29
2.13972e-29
2.13971e-29
2.1397e-29
2.13967e-29
2.13964e-29
2.1396e-29
2.13955e-29
2.13949e-29
2.13942e-29
2.13935e-29
2.13927e-29
2.13918e-29
2.13909e-29
2.13899e-29
2.13889e-29
2.13879e-29
2.13868e-29
2.13857e-29
2.13847e-29
2.13837e-29
2.13927e-29
2.13927e-29
2.13926e-29
2.13924e-29
2.13922e-29
2.13919e-29
2.13915e-29
2.13911e-29
2.13907e-29
2.13902e-29
2.13896e-29
2.1389e-29
2.13884e-29
2.13878e-29
2.13871e-29
2.13864e-29
2.13856e-29
2.13849e-29
2.13842e-29
2.13835e-29
2.13897e-29
2.13897e-29
2.13896e-29
2.13895e-29
2.13893e-29
2.13892e-29
2.13889e-29
2.13886e-29
2.13883e-29
2.1388e-29
2.13876e-29
2.13872e-29
2.13868e-29
2.13863e-29
2.13858e-29
2.13854e-29
2.13849e-29
2.13844e-29
2.13839e-29
2.13834e-29
2.13878e-29
2.13878e-29
2.13877e-29
2.13877e-29
2.13875e-29
2.13874e-29
2.13872e-29
2.1387e-29
2.13868e-29
2.13866e-29
2.13863e-29
2.1386e-29
2.13857e-29
2.13854e-29
2.13851e-29
2.13847e-29
2.13844e-29
2.1384e-29
2.13837e-29
2.13834e-29
2.13867e-29
2.13867e-29
2.13866e-29
2.13866e-29
2.13865e-29
2.13864e-29
2.13862e-29
2.13861e-29
2.13859e-29
2.13857e-29
2.13855e-29
2.13853e-29
2.13851e-29
2.13849e-29
2.13846e-29
2.13843e-29
2.13841e-29
2.13838e-29
2.13836e-29
2.13833e-29
2.13862e-29
2.13861e-29
2.13861e-29
2.13861e-29
2.1386e-29
2.13859e-29
2.13858e-29
2.13857e-29
2.13855e-29
2.13854e-29
2.13852e-29
2.1385e-29
2.13848e-29
2.13846e-29
2.13844e-29
2.13842e-29
2.1384e-29
2.13837e-29
2.13835e-29
2.13833e-29
)
;

boundaryField
{
    topWall
    {
        type            zeroGradient;
    }
    bottomWall
    {
        type            zeroGradient;
    }
    sideWallL
    {
        type            symmetry;
    }
    sideWallR
    {
        type            zeroGradient;
    }
    frontAndBack
    {
        type            empty;
    }
}


// ************************************************************************* //
