/*--------------------------------*- C++ -*----------------------------------*\
  =========                 |
  \\      /  F ield         | OpenFOAM: The Open Source CFD Toolbox
   \\    /   O peration     | Website:  https://openfoam.org
    \\  /    A nd           | Version:  7
     \\/     M anipulation  |
\*---------------------------------------------------------------------------*/
FoamFile
{
    version     2.0;
    format      ascii;
    class       volScalarField;
    location    "26";
    object      T;
}
// * * * * * * * * * * * * * * * * * * * * * * * * * * * * * * * * * * * * * //

dimensions      [0 0 0 1 0 0 0];

internalField   nonuniform List<scalar> 
900
(
512.977
512.963
512.933
512.886
512.818
512.724
512.596
512.424
512.193
511.88
511.452
510.86
510.024
508.809
506.973
504.031
498.882
488.579
463.853
391.788
478.028
477.987
477.902
477.767
477.573
477.303
476.938
476.448
475.79
474.904
473.701
472.047
469.734
466.43
461.57
454.147
442.263
422.181
386.549
322.809
447.576
447.512
447.378
447.165
446.859
446.437
445.867
445.105
444.088
442.727
440.896
438.411
434.997
430.235
423.474
413.681
399.212
377.549
345.32
299.924
421.084
421
420.825
420.549
420.152
419.607
418.874
417.9
416.609
414.9
412.628
409.592
405.508
399.968
392.392
381.965
367.593
347.968
321.993
290.001
398.106
398.006
397.801
397.477
397.013
396.378
395.529
394.409
392.939
391.014
388.49
385.176
380.816
375.066
367.481
357.509
344.526
327.985
307.751
284.699
378.246
378.136
377.911
377.555
377.047
376.357
375.44
374.239
372.679
370.66
368.052
364.689
360.36
354.802
347.707
338.737
327.584
314.091
298.451
281.448
361.149
361.034
360.797
360.426
359.898
359.183
358.241
357.019
355.446
353.435
350.876
347.634
343.546
338.426
332.075
324.305
314.992
304.154
292.053
279.278
346.492
346.376
346.138
345.764
345.236
344.526
343.596
342.398
340.874
338.949
336.535
333.526
329.804
325.245
319.727
313.16
305.514
296.874
287.479
277.75
333.985
333.872
333.639
333.276
332.764
332.08
331.19
330.055
328.624
326.838
324.628
321.916
318.62
314.659
309.967
304.507
298.297
291.434
284.115
276.636
323.364
323.256
323.034
322.69
322.208
321.566
320.738
319.689
318.381
316.765
314.791
312.402
309.544
306.168
302.24
297.755
292.748
287.309
281.592
275.806
314.388
314.288
314.082
313.764
313.319
312.731
311.977
311.03
309.859
308.429
306.7
304.636
302.199
299.364
296.115
292.463
288.447
284.144
279.671
275.175
306.843
306.751
306.565
306.276
305.874
305.346
304.673
303.834
302.806
301.561
300.073
298.316
296.268
293.915
291.254
288.301
285.095
281.696
278.193
274.692
300.533
300.451
300.284
300.027
299.671
299.205
298.615
297.884
296.995
295.929
294.666
293.191
291.489
289.555
287.394
285.021
282.47
279.791
277.047
274.317
295.285
295.213
295.066
294.841
294.53
294.125
293.616
292.988
292.231
291.33
290.272
289.046
287.647
286.072
284.328
282.432
280.41
278.301
276.155
274.026
290.943
290.881
290.754
290.56
290.293
289.946
289.512
288.98
288.343
287.59
286.714
285.706
284.565
283.292
281.895
280.386
278.79
277.135
275.458
273.799
287.372
287.319
287.211
287.045
286.818
286.525
286.16
285.715
285.185
284.563
283.844
283.023
282.101
281.079
279.965
278.771
277.515
276.22
274.912
273.621
284.451
284.406
284.315
284.175
283.985
283.74
283.436
283.069
282.633
282.124
281.539
280.876
280.136
279.321
278.438
277.497
276.513
275.502
274.484
273.482
282.074
282.037
281.961
281.845
281.688
281.485
281.235
280.934
280.579
280.166
279.694
279.163
278.573
277.927
277.232
276.494
275.725
274.939
274.149
273.373
280.153
280.122
280.059
279.964
279.835
279.669
279.466
279.221
278.934
278.602
278.225
277.802
277.335
276.827
276.281
275.705
275.108
274.498
273.887
273.288
278.607
278.582
278.531
278.454
278.349
278.215
278.05
277.854
277.624
277.359
277.06
276.726
276.358
275.96
275.535
275.087
274.624
274.153
273.683
273.222
277.372
277.351
277.31
277.248
277.163
277.056
276.924
276.767
276.585
276.375
276.139
275.877
275.59
275.28
274.95
274.604
274.247
273.885
273.524
273.17
276.39
276.373
276.34
276.29
276.223
276.138
276.033
275.909
275.765
275.601
275.416
275.212
274.989
274.748
274.494
274.228
273.954
273.676
273.4
273.13
275.613
275.601
275.574
275.535
275.482
275.414
275.332
275.235
275.122
274.994
274.85
274.692
274.52
274.335
274.139
273.936
273.726
273.515
273.304
273.099
275.004
274.994
274.973
274.942
274.9
274.848
274.783
274.708
274.62
274.521
274.41
274.288
274.156
274.014
273.865
273.71
273.551
273.39
273.231
273.075
274.528
274.52
274.504
274.48
274.447
274.406
274.356
274.298
274.23
274.154
274.069
273.976
273.875
273.767
273.654
273.536
273.416
273.294
273.174
273.056
274.158
274.152
274.14
274.121
274.096
274.064
274.026
273.981
273.929
273.871
273.806
273.735
273.659
273.577
273.492
273.403
273.312
273.221
273.131
273.042
273.873
273.868
273.859
273.844
273.825
273.801
273.772
273.738
273.698
273.654
273.605
273.551
273.494
273.432
273.368
273.301
273.233
273.165
273.098
273.032
273.654
273.651
273.643
273.633
273.618
273.6
273.577
273.552
273.522
273.488
273.451
273.411
273.368
273.322
273.274
273.224
273.174
273.123
273.073
273.024
273.488
273.485
273.479
273.471
273.46
273.446
273.43
273.41
273.388
273.363
273.335
273.305
273.273
273.239
273.203
273.166
273.128
273.091
273.054
273.017
273.361
273.359
273.355
273.349
273.341
273.33
273.318
273.303
273.287
273.268
273.247
273.225
273.201
273.176
273.149
273.122
273.095
273.067
273.039
273.013
273.266
273.264
273.261
273.257
273.251
273.243
273.234
273.223
273.211
273.197
273.182
273.165
273.147
273.129
273.109
273.09
273.069
273.049
273.029
273.009
273.195
273.194
273.191
273.188
273.183
273.178
273.171
273.163
273.154
273.144
273.133
273.12
273.108
273.094
273.08
273.065
273.05
273.036
273.021
273.007
273.142
273.141
273.139
273.137
273.133
273.129
273.124
273.118
273.112
273.104
273.096
273.087
273.078
273.068
273.058
273.047
273.037
273.026
273.015
273.005
273.103
273.102
273.101
273.099
273.096
273.093
273.09
273.086
273.081
273.075
273.069
273.063
273.056
273.049
273.042
273.034
273.026
273.019
273.011
273.004
273.074
273.073
273.072
273.071
273.069
273.067
273.065
273.061
273.058
273.054
273.05
273.045
273.04
273.035
273.03
273.024
273.019
273.013
273.008
273.003
273.053
273.052
273.052
273.051
273.05
273.048
273.046
273.044
273.041
273.039
273.036
273.032
273.029
273.025
273.021
273.017
273.013
273.009
273.006
273.002
273.038
273.037
273.037
273.036
273.035
273.034
273.033
273.031
273.029
273.027
273.025
273.023
273.02
273.018
273.015
273.012
273.01
273.007
273.004
273.001
273.027
273.026
273.026
273.026
273.025
273.024
273.023
273.022
273.021
273.019
273.018
273.016
273.014
273.013
273.011
273.009
273.007
273.005
273.003
273.001
273.019
273.019
273.018
273.018
273.018
273.017
273.016
273.016
273.015
273.014
273.013
273.011
273.01
273.009
273.007
273.006
273.005
273.003
273.002
273.001
273.013
273.013
273.013
273.013
273.012
273.012
273.011
273.011
273.01
273.01
273.009
273.008
273.007
273.006
273.005
273.004
273.003
273.002
273.001
273
273.009
273.009
273.009
273.009
273.009
273.008
273.008
273.008
273.007
273.007
273.006
273.006
273.005
273.004
273.004
273.003
273.002
273.002
273.001
273
273.007
273.007
273.006
273.006
273.006
273.006
273.006
273.005
273.005
273.005
273.004
273.004
273.004
273.003
273.003
273.002
273.002
273.001
273.001
273
273.005
273.005
273.005
273.005
273.005
273.004
273.004
273.004
273.004
273.004
273.003
273.003
273.003
273.002
273.002
273.002
273.001
273.001
273.001
273
273.004
273.004
273.004
273.004
273.004
273.003
273.003
273.003
273.003
273.003
273.003
273.002
273.002
273.002
273.001
273.001
273.001
273.001
273
273
273.003
273.003
273.003
273.003
273.003
273.003
273.003
273.003
273.003
273.002
273.002
273.002
273.002
273.002
273.001
273.001
273.001
273.001
273
273
)
;

boundaryField
{
    topWall
    {
        type            zeroGradient;
    }
    bottomWall
    {
        type            codedFixedValue;
        value           uniform 533;
        name            heating;
        code            #{
            const scalar t = this->db().time().value();
            const scalar Ttemp = 273 + 10*t;
            operator==(Ttemp);
        #};
    }
    sideWallL
    {
        type            symmetry;
    }
    sideWallR
    {
        type            fixedValue;
        value           uniform 273;
    }
    frontAndBack
    {
        type            empty;
    }
}


// ************************************************************************* //
