/*--------------------------------*- C++ -*----------------------------------*\
  =========                 |
  \\      /  F ield         | OpenFOAM: The Open Source CFD Toolbox
   \\    /   O peration     | Website:  https://openfoam.org
    \\  /    A nd           | Version:  7
     \\/     M anipulation  |
\*---------------------------------------------------------------------------*/
FoamFile
{
    version     2.0;
    format      ascii;
    class       volScalarField;
    location    "17";
    object      gradTx;
}
// * * * * * * * * * * * * * * * * * * * * * * * * * * * * * * * * * * * * * //

dimensions      [0 -1 0 1 0 0 0];

internalField   nonuniform List<scalar> 
900
(
-11.6756
-36.284
-64.8142
-100.405
-147.074
-210.271
-297.71
-420.671
-596.163
-850.674
-1227.03
-1797.79
-2693.43
-4167.94
-6770.14
-11854.8
-23320.6
-54211.1
-153460
-509970
-33.5901
-104.353
-186.281
-288.28
-421.689
-601.802
-850.096
-1197.69
-1690.93
-2400.84
-3439.74
-4991.86
-7372.56
-11149.1
-17398
-28271.7
-48226.8
-86330.8
-157928
-266550
-52.8019
-163.934
-292.27
-451.44
-658.641
-936.799
-1317.66
-1846.44
-2589.03
-3643.62
-5159.78
-7370.88
-10649.5
-15603.4
-23235.6
-35184.5
-53959.9
-82627
-121853
-158983
-68.3141
-211.905
-377.122
-580.932
-844.474
-1195.47
-1671.58
-2325.13
-3230.2
-4493.13
-6268.35
-8782.19
-12367.2
-17507.9
-24888
-35392.5
-49921.9
-68658.8
-89158.6
-103164
-79.5178
-246.385
-437.514
-671.716
-972.055
-1368.18
-1899.39
-2618.76
-3598.76
-4938.94
-6776.04
-9296.52
-12749.5
-17453.7
-23779.6
-32065.3
-42384.1
-54051.1
-64849.2
-70527.8
-86.232
-266.848
-472.645
-722.883
-1040.75
-1455.37
-2004.27
-2736.51
-3716.4
-5028.02
-6779.81
-9108.07
-12175.8
-16159.9
-21212.5
-27374.4
-34413.9
-41585.5
-47407.7
-49794.9
-88.672
-274.016
-483.993
-737.168
-1055.45
-1465.65
-2001.3
-2704.62
-3628.61
-4838.8
-6414.01
-8444.33
-11023.5
-14230.3
-18092.7
-22525.4
-27241.4
-31658.3
-34876.4
-35866.3
-87.3649
-269.581
-474.769
-719.977
-1024.89
-1412.98
-1912.63
-2558.18
-3390.75
-4458.16
-5813.49
-7510.68
-9595.41
-12088.4
-14959
-18087.8
-21225.2
-23966.6
-25782.6
-26152.8
-83.0389
-255.847
-449.238
-678.246
-959.858
-1313.75
-1762.91
-2334.04
-3057.41
-3965.99
-5092.94
-6466.93
-8104.03
-9995.24
-12089.5
-14273.9
-16358.3
-18075.3
-19115.4
-19207.7
-76.5091
-235.373
-412.057
-619.37
-871.469
-1184.28
-1575.75
-2065.81
-2675.82
-3427.25
-4339.18
-5424.15
-6681.97
-8091.35
-9600.04
-11115.7
-12502.1
-13586.6
-14187.4
-14159.3
-68.5798
-210.667
-367.724
-550.348
-769.988
-1039.15
-1371.42
-1781.17
-2282.87
-2889.73
-3611.54
-4451.44
-5401.57
-6437.95
-7515.2
-8563.01
-9486.94
-10176.8
-10524.6
-10450.5
-59.9717
-183.959
-320.195
-477.216
-664.05
-890.267
-1165.86
-1500.91
-1904.81
-2385.19
-2946.11
-3585.8
-4293.82
-5048.03
-5812.13
-6534.75
-7151.75
-7592.87
-7793.28
-7708.15
-51.279
-157.078
-272.663
-404.756
-560.314
-746.495
-970.489
-1239.15
-1558.36
-1932.11
-2361.25
-2841.86
-3363.54
-3907.77
-4446.88
-4944.33
-5357
-5640.08
-5754.21
-5673.74
-42.9509
-131.395
-227.493
-336.429
-463.457
-613.827
-792.601
-1004.32
-1252.51
-1538.95
-1862.84
-2219.7
-2600.39
-2990.27
-3368.9
-3710.74
-3987
-4169.02
-4232.66
-4163.04
-35.2948
-107.84
-186.256
-274.468
-376.373
-495.754
-636.105
-800.365
-990.525
-1207.12
-1448.64
-1710.87
-1986.3
-2263.79
-2528.6
-2763.06
-2948.03
-3065.13
-3099.43
-3042.2
-28.4912
-86.9509
-149.836
-220.066
-300.486
-393.778
-502.315
-627.947
-771.719
-933.511
-1111.65
-1302.52
-1500.24
-1696.55
-1880.98
-2041.44
-2165.22
-2240.5
-2257.98
-2212.5
-22.6177
-68.9509
-118.565
-173.601
-236.102
-307.944
-390.711
-485.539
-592.908
-712.406
-842.476
-980.185
-1121.08
-1259.15
-1387.07
-1496.59
-1579.32
-1627.63
-1635.69
-1600.43
-17.6736
-53.8245
-92.3719
-134.861
-182.742
-237.309
-299.603
-370.3
-449.566
-536.898
-630.969
-729.497
-829.182
-925.739
-1014.07
-1088.6
-1143.79
-1174.7
-1177.68
-1150.88
-13.6047
-41.3942
-70.9094
-103.251
-139.437
-180.345
-226.653
-278.748
-336.632
-399.818
-467.238
-537.167
-607.209
-674.342
-735.058
-785.608
-822.329
-842.038
-842.425
-822.387
-10.3239
-31.3845
-53.6718
-77.9601
-104.953
-135.244
-169.264
-207.225
-249.056
-294.334
-342.23
-391.472
-440.348
-486.749
-528.281
-562.433
-586.794
-599.304
-598.506
-583.736
-7.72749
-23.4729
-40.0791
-58.0848
-77.9717
-100.134
-124.845
-152.212
-182.139
-214.282
-248.017
-282.424
-316.294
-348.173
-376.438
-399.413
-415.517
-423.418
-422.194
-411.448
-5.70826
-17.3265
-29.5419
-42.7248
-57.2011
-73.2311
-90.9838
-110.509
-131.712
-154.323
-177.883
-201.739
-225.047
-246.814
-265.946
-281.331
-291.934
-296.896
-295.632
-287.907
-4.16324
-12.6283
-21.5029
-31.0389
-41.4548
-52.9203
-65.5389
-79.3291
-94.2068
-109.97
-126.288
-142.7
-158.628
-173.395
-186.272
-196.524
-203.474
-206.57
-205.444
-199.952
-2.9991
-9.09147
-15.4617
-22.2792
-29.6891
-37.8011
-46.6773
-56.3205
-66.6623
-77.5541
-88.7617
-99.9661
-110.772
-120.726
-129.341
-136.136
-140.67
-142.59
-141.661
-137.799
-2.13467
-6.4673
-10.9865
-15.8051
-21.0185
-26.697
-32.8772
-39.5549
-46.677
-54.1367
-61.7706
-69.36
-76.6381
-83.302
-89.0308
-93.5092
-96.4524
-97.6334
-96.9052
-94.2183
-1.50168
-4.54715
-7.71659
-11.0845
-14.713
-18.6466
-22.9066
-27.4863
-32.346
-37.4104
-42.5669
-47.6673
-52.5331
-56.9637
-60.7487
-63.6829
-65.5831
-66.3041
-65.7538
-63.9032
-1.04434
-3.16078
-5.35879
-7.68708
-10.1857
-12.8827
-15.79
-18.901
-22.1867
-25.5949
-29.0489
-32.4495
-35.6781
-38.603
-41.0871
-42.9979
-44.2176
-44.6542
-44.2501
-42.9881
-0.718174
-2.17263
-3.68025
-5.27257
-6.97522
-8.80558
-10.7704
-12.8637
-15.065
-17.3386
-19.6329
-21.882
-24.0079
-25.9249
-27.5441
-28.7804
-29.5587
-29.8208
-29.5307
-28.6786
-0.488453
-1.47706
-2.49999
-3.57748
-4.72577
-5.95557
-7.27052
-8.66584
-10.1273
-11.6307
-13.1419
-14.6173
-16.0064
-17.2535
-18.3015
-19.0961
-19.5897
-19.7456
-19.5415
-18.9717
-0.328624
-0.993366
-1.68006
-2.40157
-3.16812
-3.98622
-4.85778
-5.77916
-6.74066
-7.7261
-8.71298
-9.67307
-10.5735
-11.3787
-12.0521
-12.5594
-12.8704
-12.9622
-12.8211
-12.4438
-0.21874
-0.660974
-1.11712
-1.59529
-2.10184
-2.64073
-3.21287
-3.81564
-4.44248
-5.08274
-5.72178
-6.34135
-6.92044
-7.43629
-7.86586
-8.1874
-8.38208
-8.43563
-8.33955
-8.09206
-0.144068
-0.435194
-0.73506
-1.04873
-1.38013
-1.73163
-2.10364
-2.49431
-2.89929
-3.31162
-3.72188
-4.1184
-4.4878
-4.81573
-5.08768
-5.29003
-5.41107
-5.44196
-5.3775
-5.2167
-0.0939024
-0.28357
-0.478678
-0.68236
-0.897024
-1.12407
-1.36367
-1.61453
-1.8738
-2.13701
-2.39813
-2.64977
-2.88351
-3.09032
-3.26117
-3.38758
-3.46231
-3.47992
-3.43726
-3.33378
-0.0605761
-0.182879
-0.308538
-0.439478
-0.577159
-0.722406
-0.875262
-1.03486
-1.19935
-1.36588
-1.53065
-1.689
-1.83567
-1.96506
-2.07156
-2.14994
-2.19575
-2.20567
-2.17779
-2.11182
-0.0386801
-0.116745
-0.196862
-0.280203
-0.367646
-0.459673
-0.556273
-0.656872
-0.760289
-0.864721
-0.967784
-1.06659
-1.15786
-1.23816
-1.30402
-1.35225
-1.38013
-1.38565
-1.36765
-1.32599
-0.02445
-0.0737774
-0.124349
-0.176872
-0.23187
-0.289621
-0.350097
-0.412925
-0.477356
-0.542266
-0.606173
-0.667294
-0.723624
-0.773044
-0.813451
-0.842899
-0.859743
-0.862766
-0.851287
-0.825223
-0.0153012
-0.0461605
-0.0777679
-0.110546
-0.144804
-0.180702
-0.21821
-0.257088
-0.296869
-0.336856
-0.376139
-0.413627
-0.448098
-0.478265
-0.502856
-0.520696
-0.530796
-0.532428
-0.525187
-0.509032
-0.00948172
-0.0285984
-0.0481609
-0.0684195
-0.0895564
-0.111661
-0.134709
-0.158549
-0.18289
-0.207307
-0.231245
-0.254042
-0.274959
-0.293223
-0.308067
-0.31879
-0.324801
-0.325667
-0.32115
-0.311229
-0.00581962
-0.0175495
-0.0295428
-0.0419467
-0.0548672
-0.0683543
-0.0823897
-0.0968782
-0.111642
-0.126423
-0.140886
-0.154633
-0.167222
-0.178189
-0.187079
-0.193474
-0.197025
-0.197475
-0.194687
-0.188649
-0.00354051
-0.0106747
-0.0179633
-0.0254922
-0.0333227
-0.0414823
-0.049958
-0.0586908
-0.0675732
-0.0764492
-0.0851185
-0.0933436
-0.100861
-0.107397
-0.112682
-0.116468
-0.118551
-0.11878
-0.117075
-0.113431
-0.00213944
-0.00644934
-0.0108492
-0.0153888
-0.0201034
-0.0250079
-0.0300935
-0.0353241
-0.0406347
-0.0459322
-0.0510973
-0.0559893
-0.0604526
-0.0643252
-0.0674486
-0.0696782
-0.0708934
-0.0710068
-0.0699718
-0.0677867
-0.00129193
-0.00389386
-0.00654815
-0.0092837
-0.0121206
-0.0150671
-0.0181171
-0.0212486
-0.0244225
-0.0275832
-0.0306596
-0.0335685
-0.0362178
-0.0385121
-0.0403581
-0.0416708
-0.0423798
-0.042434
-0.0418065
-0.0404968
-0.000793385
-0.00239085
-0.00401928
-0.00569567
-0.0074317
-0.00923191
-0.0110922
-0.0129989
-0.0149281
-0.0168459
-0.0187095
-0.0204686
-0.0220679
-0.0234502
-0.0245597
-0.0253458
-0.0257663
-0.0257912
-0.0254044
-0.024606
-0.000518914
-0.00156348
-0.00262755
-0.00372176
-0.00485334
-0.00602493
-0.00723362
-0.00847035
-0.00971954
-0.0109593
-0.0121621
-0.0132955
-0.0143243
-0.0152117
-0.0159224
-0.0164239
-0.0166897
-0.0167007
-0.0164469
-0.0159285
-0.000397653
-0.00119798
-0.00201283
-0.00285011
-0.00371512
-0.00460969
-0.00553149
-0.00647349
-0.00742383
-0.00836587
-0.00927866
-0.0101378
-0.0109166
-0.0115875
-0.0121238
-0.0125013
-0.0126999
-0.0127055
-0.0125106
-0.0121154
)
;

boundaryField
{
    topWall
    {
        type            calculated;
        value           nonuniform List<scalar> 
20
(
-0.000397653
-0.00119798
-0.00201283
-0.00285011
-0.00371512
-0.00460969
-0.00553149
-0.00647349
-0.00742383
-0.00836587
-0.00927866
-0.0101378
-0.0109166
-0.0115875
-0.0121238
-0.0125013
-0.0126999
-0.0127055
-0.0125106
-0.0121154
)
;
    }
    bottomWall
    {
        type            calculated;
        value           nonuniform List<scalar> 
20
(
-11.6756
-36.284
-64.8142
-100.405
-147.074
-210.271
-297.71
-420.671
-596.163
-850.674
-1227.03
-1797.79
-2693.43
-4167.94
-6770.14
-11854.8
-23320.6
-54211.1
-153460
-509970
)
;
    }
    sideWallL
    {
        type            symmetry;
    }
    sideWallR
    {
        type            calculated;
        value           nonuniform List<scalar> 
45
(
-790062
-328678
-174086
-107032
-71425.3
-49844.6
-35678
-25918.1
-18988.7
-13973.9
-10300.6
-7590.31
-5582.76
-4093.78
-2990.07
-2173.67
-1571.79
-1129.94
-807.208
-572.831
-403.681
-282.423
-196.113
-135.135
-92.3855
-62.6533
-42.1432
-28.1126
-18.5958
-12.1964
-7.93067
-5.11237
-3.26693
-2.06938
-1.29929
-0.808573
-0.498745
-0.304929
-0.184825
-0.111129
-0.0664093
-0.039673
-0.024105
-0.0156038
-0.0118682
)
;
    }
    frontAndBack
    {
        type            empty;
    }
}


// ************************************************************************* //
