/*--------------------------------*- C++ -*----------------------------------*\
  =========                 |
  \\      /  F ield         | OpenFOAM: The Open Source CFD Toolbox
   \\    /   O peration     | Website:  https://openfoam.org
    \\  /    A nd           | Version:  7
     \\/     M anipulation  |
\*---------------------------------------------------------------------------*/
FoamFile
{
    version     2.0;
    format      ascii;
    class       volScalarField;
    location    "17";
    object      gradTy;
}
// * * * * * * * * * * * * * * * * * * * * * * * * * * * * * * * * * * * * * //

dimensions      [0 -1 0 1 0 0 0];

internalField   nonuniform List<scalar> 
900
(
-144179
-144224
-144320
-144475
-144708
-145044
-145520
-146192
-147139
-148479
-150390
-153146
-157180
-163212
-172497
-187380
-212623
-258927
-353165
-570315
-122814
-122856
-122942
-123083
-123293
-123595
-124020
-124615
-125445
-126607
-128238
-130540
-133812
-138496
-145247
-154962
-168577
-185601
-196993
-153994
-104163
-104198
-104270
-104388
-104563
-104811
-105157
-105633
-106284
-107172
-108376
-110001
-112167
-114995
-118526
-122485
-125646
-124180
-107974
-55411.3
-87907.6
-87934.3
-87990.1
-88079.6
-88210.3
-88393
-88641.7
-88974.7
-89414
-89984.4
-90709.3
-91600.7
-92635
-93700.7
-94485.3
-94244.8
-91366.1
-82669
-62790.2
-25665.1
-73782.6
-73800.6
-73837.6
-73896.1
-73979.5
-74092.4
-74239.4
-74425.1
-74650.8
-74911.3
-75185.7
-75422.7
-75511.6
-75231.4
-74163.6
-71555.8
-66145.5
-56047.8
-39072.2
-14297
-61556.7
-61565.9
-61584.4
-61612.4
-61649.8
-61695.8
-61747.3
-61797.7
-61833.1
-61827.5
-61733
-61465.5
-60880.8
-59739.4
-57657.4
-54052.4
-48117.5
-38909.7
-25724.7
-8936.82
-51025.6
-51026.7
-51028.3
-51028.8
-51025.4
-51013
-50983
-50921.3
-50804.7
-50595.7
-50234.8
-49629.4
-48637.5
-47048.9
-44566
-40795.5
-35279.3
-27606.8
-17660.5
-5981.62
-42005.7
-42000.1
-41987.5
-41965.3
-41928.6
-41869.7
-41776.7
-41631.3
-41406.1
-41060.1
-40533.3
-39739.1
-38555.9
-36819.7
-34320.9
-30816.4
-26069.4
-19933.3
-12486.3
-4172.33
-34329.9
-34319
-34295.7
-34256.3
-34195
-34102.9
-33966.3
-33766
-33474
-33051.1
-32443.1
-31576.8
-30356.5
-28663.3
-26359.4
-23304.3
-19387.4
-14581.2
-9007.42
-2986.05
-27844.2
-27829.7
-27799
-27748.2
-27671.1
-27558.3
-27396.5
-27166.8
-26843.6
-26392.3
-25767.4
-24910.9
-23751.9
-22208.5
-20194.6
-17634.2
-14483.7
-10762.8
-6585.18
-2172.02
-22406.2
-22389.6
-22354.8
-22297.8
-22212.6
-22090.4
-21918.6
-21680.5
-21353.7
-20909.5
-20311.6
-19516.4
-18473.3
-17128.3
-15430
-13340.3
-10849
-7990.02
-4855.26
-1595.9
-17883.9
-17866.6
-17830.3
-17771.5
-17684.7
-17561.8
-17392
-17160.9
-16850
-16436.4
-15892.4
-15186.1
-14282.8
-13148.1
-11752.6
-10079.8
-8133.96
-5949.82
-3597.26
-1179.47
-14155.3
-14138.3
-14102.8
-14045.6
-13962
-13845
-13685.5
-13471.7
-13188.9
-12819.4
-12342.7
-11736.2
-10976.6
-10042.7
-8918.84
-7599.51
-6094.82
-4434.76
-2670.97
-874.134
-11108.6
-11092.6
-11059.4
-11006.2
-10929.1
-10822.3
-10678.3
-10487.9
-10239.6
-9920.05
-9514.56
-9007.45
-8383.57
-7630.2
-6739.59
-5711.92
-4558.32
-3302.95
-1983.37
-648.173
-8641.9
-8627.44
-8597.46
-8549.79
-8481.1
-8386.82
-8261.05
-8096.53
-7884.68
-7615.74
-7279.23
-6864.55
-6362.05
-5764.4
-5068.33
-4276.48
-3399.03
-2454.7
-1470.52
-480.026
-6663.6
-6650.93
-6624.72
-6583.24
-6523.85
-6442.97
-6336.04
-6197.57
-6021.21
-5799.95
-5526.49
-5193.78
-4795.81
-4328.56
-3791.16
-3187.02
-2524.7
-1818.31
-1087.19
-354.571
-5092.21
-5081.4
-5059.09
-5023.93
-4973.88
-4906.19
-4817.41
-4703.48
-4559.77
-4381.32
-4163.15
-3900.64
-3590.13
-3229.58
-2819.32
-2362.67
-1866.48
-1341.24
-800.686
-260.934
-3856.18
-3847.17
-3828.62
-3799.51
-3758.27
-3702.84
-3630.67
-3538.79
-3423.88
-3282.51
-3111.3
-2907.27
-2668.28
-2393.41
-2083.47
-1741.4
-1372.49
-984.41
-586.902
-191.144
-2893.5
-2886.15
-2871.06
-2847.45
-2814.16
-2769.66
-2712.09
-2639.32
-2549.02
-2438.81
-2306.45
-2150.07
-1968.43
-1761.24
-1529.44
-1275.45
-1003.27
-718.45
-427.868
-139.276
-2151.16
-2145.28
-2133.23
-2114.45
-2088.07
-2052.98
-2007.86
-1951.17
-1881.32
-1796.68
-1695.78
-1577.46
-1441.04
-1286.55
-1114.87
-927.926
-728.678
-521.113
-310.057
-100.882
-1584.44
-1579.82
-1570.38
-1555.69
-1535.15
-1507.94
-1473.13
-1429.66
-1376.42
-1312.32
-1236.41
-1147.97
-1046.67
-932.67
-806.737
-670.335
-525.636
-375.475
-223.227
-72.6021
-1156.14
-1152.58
-1145.3
-1134
-1118.25
-1097.49
-1071.04
-1038.18
-998.155
-950.247
-893.842
-828.517
-754.119
-670.851
-579.341
-480.685
-376.451
-268.642
-159.604
-51.8919
-835.716
-833.007
-827.481
-818.927
-807.035
-791.415
-771.605
-747.108
-717.417
-682.059
-640.648
-592.937
-538.875
-478.662
-412.787
-342.057
-267.592
-190.794
-113.286
-36.8219
-598.413
-596.384
-592.252
-585.868
-577.018
-565.431
-550.795
-532.77
-511.02
-485.24
-455.187
-420.723
-381.847
-338.733
-291.754
-241.492
-188.739
-134.47
-79.802
-25.9319
-424.447
-422.949
-419.902
-415.204
-408.708
-400.228
-389.553
-376.457
-360.719
-342.141
-320.575
-295.946
-268.276
-237.707
-204.514
-169.115
-132.061
-94.0272
-55.7756
-18.1204
-298.204
-297.114
-294.898
-291.486
-286.78
-280.653
-272.965
-263.566
-252.311
-239.076
-223.77
-206.354
-186.859
-165.394
-142.16
-117.451
-91.6488
-65.2157
-38.6697
-12.5606
-207.521
-206.738
-205.147
-202.701
-199.335
-194.964
-189.494
-182.827
-174.871
-165.546
-154.799
-142.612
-129.014
-114.087
-97.9752
-80.8827
-63.0727
-44.8583
-26.5894
-8.6352
-143.041
-142.485
-141.358
-139.627
-137.248
-134.167
-130.321
-125.647
-120.086
-113.588
-106.122
-97.6806
-88.2894
-78.0089
-66.9399
-55.2233
-43.0381
-30.5954
-18.1295
-5.88685
-97.657
-97.2675
-96.4778
-95.2673
-93.6068
-91.4602
-88.7874
-85.5476
-81.7029
-77.2232
-72.0904
-66.3033
-59.8815
-52.8689
-45.3354
-37.377
-29.1144
-20.6887
-12.2558
-3.97905
-66.0366
-65.7668
-65.2205
-64.384
-63.2383
-61.76
-59.9234
-57.7024
-55.0732
-52.0175
-48.5252
-44.5975
-40.2493
-35.5115
-30.4321
-25.0758
-19.5234
-13.8682
-8.21337
-2.66628
-44.2283
-44.0438
-43.6701
-43.0987
-42.3173
-41.3108
-40.0627
-38.5566
-36.7778
-34.7153
-32.3634
-29.7241
-26.8087
-23.6384
-20.2457
-16.6739
-12.9764
-9.2146
-5.45607
-1.771
-29.3392
-29.2144
-28.9618
-28.576
-28.0489
-27.3712
-26.5323
-25.522
-24.3312
-22.9533
-21.3854
-19.6296
-17.6938
-15.5927
-13.3479
-10.988
-8.54806
-6.06823
-3.59235
-1.16593
-19.2766
-19.1931
-19.0242
-18.7665
-18.415
-17.9636
-17.4058
-16.7352
-15.9463
-15.0353
-14.0006
-12.844
-11.5712
-10.1919
-8.72051
-7.17577
-5.58042
-3.96045
-2.34413
-0.760746
-12.5442
-12.4889
-12.3773
-12.2071
-11.9752
-11.6777
-11.3108
-10.8703
-10.3531
-9.75683
-9.08083
-8.32649
-7.49764
-6.60084
-5.64548
-4.6437
-3.61015
-2.56152
-1.51588
-0.491911
-8.0851
-8.04898
-7.976
-7.86479
-7.7134
-7.5195
-7.28061
-6.99434
-6.65868
-6.27234
-5.83506
-5.34787
-4.81335
-4.23582
-3.62134
-2.97772
-2.3143
-1.64171
-0.971399
-0.315203
-5.16131
-5.13793
-5.09072
-5.01884
-4.92107
-4.79599
-4.6421
-4.45793
-4.24231
-3.99451
-3.71445
-3.40286
-3.06149
-2.6931
-2.30159
-1.89193
-1.47004
-1.0426
-0.616822
-0.200136
-3.26329
-3.24832
-3.21811
-3.17213
-3.10966
-3.02982
-2.9317
-2.81443
-2.67732
-2.51997
-2.34237
-2.14504
-1.92911
-1.69637
-1.44929
-1.19099
-0.925182
-0.656048
-0.388083
-0.125911
-2.04335
-2.03387
-2.01474
-1.98564
-1.94614
-1.8957
-1.83379
-1.75988
-1.67358
-1.57466
-1.46315
-1.3394
-1.20415
-1.05853
-0.904077
-0.742751
-0.576856
-0.40898
-0.241903
-0.0784799
-1.26682
-1.26088
-1.2489
-1.23069
-1.20597
-1.17445
-1.1358
-1.0897
-1.03594
-0.974384
-0.905079
-0.828257
-0.744381
-0.65416
-0.558556
-0.458774
-0.356234
-0.252524
-0.149348
-0.04845
-0.77708
-0.7734
-0.76598
-0.754706
-0.739422
-0.719942
-0.696075
-0.667646
-0.634521
-0.596638
-0.55403
-0.50685
-0.455387
-0.400081
-0.341523
-0.28045
-0.217727
-0.154319
-0.0912583
-0.029604
-0.470588
-0.468339
-0.463807
-0.456924
-0.447598
-0.435722
-0.421183
-0.403881
-0.383741
-0.36073
-0.334875
-0.306272
-0.2751
-0.241628
-0.206215
-0.169304
-0.131417
-0.0931327
-0.0550705
-0.017864
-0.279488
-0.278141
-0.275429
-0.271312
-0.265736
-0.25864
-0.24996
-0.239639
-0.227635
-0.213932
-0.198548
-0.181544
-0.163028
-0.143159
-0.122153
-0.10027
-0.0778202
-0.0551435
-0.0326045
-0.0105761
-0.159441
-0.158668
-0.157111
-0.154747
-0.151549
-0.14748
-0.142507
-0.136597
-0.129728
-0.121894
-0.113105
-0.103396
-0.0928315
-0.0815026
-0.0695312
-0.0570669
-0.0442843
-0.0313769
-0.018551
-0.00601729
-0.0812211
-0.0808254
-0.0800282
-0.0788189
-0.0771827
-0.0751024
-0.0725605
-0.0695416
-0.0660351
-0.0620374
-0.0575551
-0.0526066
-0.0472243
-0.0414553
-0.0353616
-0.0290194
-0.0225172
-0.015953
-0.00943148
-0.00305918
-0.0248217
-0.0247004
-0.0244562
-0.0240857
-0.0235845
-0.0229475
-0.0221693
-0.0212453
-0.0201724
-0.0189496
-0.017579
-0.0160662
-0.0144213
-0.0126586
-0.0107971
-0.00886006
-0.00687448
-0.00487027
-0.00287924
-0.000933898
)
;

boundaryField
{
    topWall
    {
        type            calculated;
        value           uniform 0;
    }
    bottomWall
    {
        type            calculated;
        value           nonuniform List<scalar> 
20
(
-155583
-155630
-155728
-155889
-156130
-156477
-156971
-157668
-158653
-160053
-162056
-164961
-169247
-175735
-185919
-202815
-233338
-296098
-450183
-909938
)
;
    }
    sideWallL
    {
        type            symmetry;
    }
    sideWallR
    {
        type            calculated;
        value           nonuniform List<scalar> 
45
(
-570315
-153994
-55411.3
-25665.1
-14297
-8936.82
-5981.62
-4172.33
-2986.05
-2172.02
-1595.9
-1179.47
-874.134
-648.173
-480.026
-354.571
-260.934
-191.144
-139.276
-100.882
-72.6021
-51.8919
-36.8219
-25.9319
-18.1204
-12.5606
-8.6352
-5.88685
-3.97905
-2.66628
-1.771
-1.16593
-0.760746
-0.491911
-0.315203
-0.200136
-0.125911
-0.0784799
-0.04845
-0.029604
-0.017864
-0.0105761
-0.00601729
-0.00305918
-0.000933898
)
;
    }
    frontAndBack
    {
        type            empty;
    }
}


// ************************************************************************* //
