/*--------------------------------*- C++ -*----------------------------------*\
  =========                 |
  \\      /  F ield         | OpenFOAM: The Open Source CFD Toolbox
   \\    /   O peration     | Website:  https://openfoam.org
    \\  /    A nd           | Version:  7
     \\/     M anipulation  |
\*---------------------------------------------------------------------------*/
FoamFile
{
    version     2.0;
    format      ascii;
    class       volScalarField;
    location    "17";
    object      rhoc;
}
// * * * * * * * * * * * * * * * * * * * * * * * * * * * * * * * * * * * * * //

dimensions      [1 -3 0 0 0 0 0];

internalField   nonuniform List<scalar> 
900
(
2.10616e-14
2.10471e-14
2.10164e-14
2.09662e-14
2.08907e-14
2.07812e-14
2.06253e-14
2.04049e-14
2.00943e-14
1.96572e-14
1.90417e-14
1.81751e-14
1.6956e-14
1.52483e-14
1.28839e-14
9.70771e-15
5.77312e-15
1.92961e-15
1.13562e-16
6.59005e-21
1.57459e-16
1.57107e-16
1.56365e-16
1.55155e-16
1.5335e-16
1.50763e-16
1.47137e-16
1.42126e-16
1.35285e-16
1.26076e-16
1.13905e-16
9.82576e-17
7.89765e-17
5.67892e-17
3.40142e-17
1.48514e-17
3.61646e-18
2.7447e-19
1.6667e-21
3.46892e-26
1.51058e-18
1.50468e-18
1.4923e-18
1.47222e-18
1.44254e-18
1.40058e-18
1.34283e-18
1.26505e-18
1.16257e-18
1.03118e-18
8.68958e-19
6.79243e-19
4.74617e-19
2.79503e-19
1.25954e-19
3.68792e-20
5.27726e-21
2.23811e-22
1.22997e-24
4.06751e-28
1.98371e-20
1.97276e-20
1.94985e-20
1.91294e-20
1.85892e-20
1.7836e-20
1.68192e-20
1.54845e-20
1.37862e-20
1.17085e-20
9.2995e-21
6.70988e-21
4.21288e-21
2.1577e-21
8.17305e-22
1.97247e-22
2.42743e-23
1.11845e-24
1.40697e-26
6.49058e-29
3.76267e-22
3.73668e-22
3.68253e-22
3.59583e-22
3.47012e-22
3.29714e-22
3.06769e-22
2.77343e-22
2.41018e-22
1.9829e-22
1.51179e-22
1.03645e-22
6.124e-23
2.93789e-23
1.05319e-23
2.52268e-24
3.51161e-25
2.47498e-26
8.75358e-28
2.65078e-29
1.07326e-23
1.06478e-23
1.04715e-23
1.01909e-23
9.78748e-24
9.23844e-24
8.52065e-24
7.61696e-24
6.52677e-24
5.27997e-24
3.95034e-24
2.65856e-24
1.55093e-24
7.47246e-25
2.79799e-25
7.58659e-26
1.39262e-26
1.69077e-27
1.53759e-28
1.6137e-29
4.7245e-25
4.68475e-25
4.60241e-25
4.47194e-25
4.2855e-25
4.03393e-25
3.70844e-25
3.30374e-25
2.82247e-25
2.28058e-25
1.71158e-25
1.16573e-25
6.99913e-26
3.57791e-26
1.49852e-26
4.96282e-27
1.2786e-27
2.65826e-28
5.14146e-29
1.19723e-29
3.25005e-26
3.22282e-26
3.16652e-26
3.0776e-26
2.9511e-26
2.78129e-26
2.56291e-26
2.29308e-26
1.97402e-26
1.61611e-26
1.24009e-26
8.76256e-27
5.58643e-27
3.14415e-27
1.53179e-27
6.3936e-28
2.31384e-28
7.65106e-29
2.56488e-29
9.91004e-30
3.50076e-27
3.47342e-27
3.41697e-27
3.32797e-27
3.20164e-27
3.03246e-27
2.8153e-27
2.54714e-27
2.22948e-27
1.87096e-27
1.48933e-27
1.11104e-27
7.67018e-28
4.84525e-28
2.78224e-28
1.45721e-28
7.10378e-29
3.36201e-29
1.64036e-29
8.75613e-30
5.86282e-28
5.82307e-28
5.74102e-28
5.61174e-28
5.42831e-28
5.18265e-28
4.86685e-28
4.47543e-28
4.00832e-28
3.47426e-28
2.8936e-28
2.29868e-28
1.73009e-28
1.22819e-28
8.22415e-29
5.23266e-29
3.21719e-29
1.96235e-29
1.22537e-29
8.05957e-30
1.49457e-28
1.48639e-28
1.46953e-28
1.44295e-28
1.40521e-28
1.35458e-28
1.28927e-28
1.2078e-28
1.10957e-28
9.95424e-29
8.68271e-29
7.33329e-29
5.97805e-29
4.69796e-29
3.56605e-29
2.63075e-29
1.90688e-29
1.37838e-29
1.01014e-29
7.618e-30
5.53992e-29
5.51708e-29
5.46992e-29
5.39558e-29
5.2899e-29
5.14779e-29
4.9637e-29
4.73251e-29
4.45077e-29
4.11817e-29
3.73914e-29
3.32395e-29
2.88875e-29
2.454e-29
2.04132e-29
1.66953e-29
1.3512e-29
1.09121e-29
8.87391e-30
7.32894e-30
2.781e-29
2.77275e-29
2.75571e-29
2.72884e-29
2.69062e-29
2.63912e-29
2.57218e-29
2.48764e-29
2.3837e-29
2.2594e-29
2.11512e-29
1.95309e-29
1.77757e-29
1.59469e-29
1.41186e-29
1.23664e-29
1.07565e-29
9.33583e-30
8.12825e-30
7.13568e-30
1.74581e-29
1.74217e-29
1.73465e-29
1.7228e-29
1.70593e-29
1.68319e-29
1.65357e-29
1.61602e-29
1.56957e-29
1.51352e-29
1.44761e-29
1.37227e-29
1.28873e-29
1.1991e-29
1.1062e-29
1.01331e-29
9.23751e-30
8.40438e-30
7.65573e-30
7.0047e-30
1.27876e-29
1.2769e-29
1.27306e-29
1.267e-29
1.25839e-29
1.24678e-29
1.23164e-29
1.21243e-29
1.18858e-29
1.15965e-29
1.12535e-29
1.08569e-29
1.04104e-29
9.92184e-30
9.4032e-30
8.86969e-30
8.33833e-30
7.82601e-30
7.34775e-30
6.91519e-30
1.0383e-29
1.03724e-29
1.03506e-29
1.03163e-29
1.02675e-29
1.02018e-29
1.01163e-29
1.00077e-29
9.87278e-30
9.70868e-30
9.51331e-30
9.28587e-30
9.02742e-30
8.74113e-30
8.43249e-30
8.10905e-30
7.7799e-30
7.45481e-30
7.14331e-30
6.85375e-30
9.02553e-30
9.01907e-30
9.00577e-30
8.98485e-30
8.9552e-30
8.91533e-30
8.86352e-30
8.79783e-30
8.71629e-30
8.61706e-30
8.49872e-30
8.36052e-30
8.20267e-30
8.02655e-30
7.83487e-30
7.63162e-30
7.42187e-30
7.21136e-30
7.00603e-30
6.8115e-30
8.2093e-30
8.20516e-30
8.19665e-30
8.18328e-30
8.16437e-30
8.13902e-30
8.10615e-30
8.06457e-30
8.01304e-30
7.95042e-30
7.87576e-30
7.7885e-30
7.68861e-30
7.57675e-30
7.45434e-30
7.32363e-30
7.18752e-30
7.04949e-30
6.91325e-30
6.78247e-30
7.69717e-30
7.69443e-30
7.68881e-30
7.68e-30
7.66757e-30
7.65095e-30
7.62946e-30
7.60235e-30
7.56885e-30
7.52823e-30
7.47988e-30
7.42341e-30
7.35875e-30
7.28624e-30
7.2067e-30
7.12142e-30
7.03215e-30
6.94102e-30
6.85037e-30
6.76256e-30
7.3667e-30
7.36485e-30
7.36107e-30
7.35515e-30
7.34683e-30
7.33572e-30
7.32142e-30
7.30343e-30
7.28126e-30
7.25447e-30
7.22265e-30
7.18555e-30
7.14313e-30
7.09557e-30
7.04335e-30
6.98727e-30
6.9284e-30
6.86806e-30
6.80773e-30
6.74895e-30
7.14964e-30
7.14838e-30
7.14581e-30
7.1418e-30
7.13616e-30
7.12867e-30
7.11905e-30
7.10699e-30
7.09219e-30
7.07435e-30
7.05323e-30
7.02867e-30
7.00063e-30
6.96924e-30
6.9348e-30
6.89779e-30
6.85889e-30
6.81894e-30
6.77887e-30
6.73968e-30
7.00559e-30
7.00473e-30
7.00298e-30
7.00024e-30
6.99641e-30
6.99134e-30
6.98484e-30
6.97673e-30
6.9668e-30
6.95488e-30
6.94081e-30
6.9245e-30
6.90592e-30
6.88517e-30
6.86242e-30
6.83799e-30
6.81232e-30
6.78593e-30
6.75941e-30
6.73341e-30
6.90952e-30
6.90893e-30
6.90774e-30
6.90587e-30
6.90327e-30
6.89983e-30
6.89545e-30
6.88999e-30
6.88333e-30
6.87536e-30
6.866e-30
6.85517e-30
6.84287e-30
6.82916e-30
6.81416e-30
6.79807e-30
6.78118e-30
6.7638e-30
6.74634e-30
6.72918e-30
6.84537e-30
6.84497e-30
6.84416e-30
6.84289e-30
6.84113e-30
6.83881e-30
6.83586e-30
6.83219e-30
6.82774e-30
6.82244e-30
6.81622e-30
6.80905e-30
6.80093e-30
6.7919e-30
6.78205e-30
6.7715e-30
6.76042e-30
6.74904e-30
6.7376e-30
6.72635e-30
6.80261e-30
6.80234e-30
6.80179e-30
6.80094e-30
6.79975e-30
6.79819e-30
6.79621e-30
6.79377e-30
6.79081e-30
6.78729e-30
6.78318e-30
6.77845e-30
6.77312e-30
6.76721e-30
6.76076e-30
6.75388e-30
6.74666e-30
6.73925e-30
6.7318e-30
6.72447e-30
6.77421e-30
6.77403e-30
6.77366e-30
6.77309e-30
6.7723e-30
6.77126e-30
6.76994e-30
6.76832e-30
6.76636e-30
6.76404e-30
6.76134e-30
6.75825e-30
6.75477e-30
6.75092e-30
6.74673e-30
6.74226e-30
6.73758e-30
6.73279e-30
6.72797e-30
6.72323e-30
6.75545e-30
6.75533e-30
6.75509e-30
6.75471e-30
6.75418e-30
6.75349e-30
6.75262e-30
6.75155e-30
6.75027e-30
6.74875e-30
6.74699e-30
6.74498e-30
6.74272e-30
6.74023e-30
6.73752e-30
6.73465e-30
6.73164e-30
6.72855e-30
6.72546e-30
6.72241e-30
6.74314e-30
6.74306e-30
6.74289e-30
6.74264e-30
6.7423e-30
6.74184e-30
6.74128e-30
6.74058e-30
6.73974e-30
6.73876e-30
6.73762e-30
6.73632e-30
6.73486e-30
6.73326e-30
6.73153e-30
6.72969e-30
6.72777e-30
6.7258e-30
6.72382e-30
6.72188e-30
6.73511e-30
6.73505e-30
6.73495e-30
6.73478e-30
6.73456e-30
6.73426e-30
6.73389e-30
6.73344e-30
6.7329e-30
6.73227e-30
6.73154e-30
6.73071e-30
6.72978e-30
6.72876e-30
6.72765e-30
6.72648e-30
6.72527e-30
6.72402e-30
6.72277e-30
6.72154e-30
6.72991e-30
6.72988e-30
6.72981e-30
6.7297e-30
6.72956e-30
6.72937e-30
6.72913e-30
6.72884e-30
6.72849e-30
6.72809e-30
6.72762e-30
6.72709e-30
6.72651e-30
6.72586e-30
6.72516e-30
6.72443e-30
6.72366e-30
6.72288e-30
6.72209e-30
6.72132e-30
6.72658e-30
6.72655e-30
6.72651e-30
6.72644e-30
6.72635e-30
6.72623e-30
6.72608e-30
6.72589e-30
6.72567e-30
6.72542e-30
6.72512e-30
6.72479e-30
6.72442e-30
6.72402e-30
6.72358e-30
6.72312e-30
6.72264e-30
6.72215e-30
6.72166e-30
6.72118e-30
6.72445e-30
6.72444e-30
6.72441e-30
6.72437e-30
6.72431e-30
6.72423e-30
6.72414e-30
6.72402e-30
6.72388e-30
6.72372e-30
6.72354e-30
6.72333e-30
6.7231e-30
6.72285e-30
6.72258e-30
6.72229e-30
6.722e-30
6.72169e-30
6.72139e-30
6.72109e-30
6.72311e-30
6.7231e-30
6.72309e-30
6.72306e-30
6.72302e-30
6.72297e-30
6.72291e-30
6.72284e-30
6.72276e-30
6.72266e-30
6.72254e-30
6.72241e-30
6.72227e-30
6.72212e-30
6.72195e-30
6.72177e-30
6.72159e-30
6.72141e-30
6.72122e-30
6.72104e-30
6.72227e-30
6.72227e-30
6.72226e-30
6.72224e-30
6.72222e-30
6.72219e-30
6.72215e-30
6.72211e-30
6.72205e-30
6.72199e-30
6.72192e-30
6.72184e-30
6.72176e-30
6.72166e-30
6.72156e-30
6.72145e-30
6.72134e-30
6.72123e-30
6.72111e-30
6.721e-30
6.72175e-30
6.72175e-30
6.72174e-30
6.72173e-30
6.72172e-30
6.7217e-30
6.72168e-30
6.72165e-30
6.72162e-30
6.72158e-30
6.72154e-30
6.72149e-30
6.72144e-30
6.72138e-30
6.72132e-30
6.72125e-30
6.72119e-30
6.72112e-30
6.72105e-30
6.72098e-30
6.72143e-30
6.72143e-30
6.72143e-30
6.72142e-30
6.72141e-30
6.7214e-30
6.72139e-30
6.72137e-30
6.72135e-30
6.72133e-30
6.7213e-30
6.72127e-30
6.72124e-30
6.72121e-30
6.72117e-30
6.72113e-30
6.72109e-30
6.72105e-30
6.72101e-30
6.72097e-30
6.72124e-30
6.72124e-30
6.72124e-30
6.72123e-30
6.72123e-30
6.72122e-30
6.72121e-30
6.7212e-30
6.72119e-30
6.72118e-30
6.72116e-30
6.72114e-30
6.72112e-30
6.7211e-30
6.72108e-30
6.72106e-30
6.72103e-30
6.72101e-30
6.72099e-30
6.72096e-30
6.72112e-30
6.72112e-30
6.72112e-30
6.72112e-30
6.72111e-30
6.72111e-30
6.7211e-30
6.7211e-30
6.72109e-30
6.72108e-30
6.72107e-30
6.72106e-30
6.72105e-30
6.72104e-30
6.72103e-30
6.72101e-30
6.721e-30
6.72099e-30
6.72097e-30
6.72096e-30
6.72105e-30
6.72105e-30
6.72105e-30
6.72105e-30
6.72105e-30
6.72104e-30
6.72104e-30
6.72104e-30
6.72103e-30
6.72103e-30
6.72102e-30
6.72102e-30
6.72101e-30
6.721e-30
6.721e-30
6.72099e-30
6.72098e-30
6.72097e-30
6.72096e-30
6.72095e-30
6.72101e-30
6.72101e-30
6.72101e-30
6.72101e-30
6.72101e-30
6.721e-30
6.721e-30
6.721e-30
6.721e-30
6.721e-30
6.72099e-30
6.72099e-30
6.72099e-30
6.72098e-30
6.72098e-30
6.72097e-30
6.72097e-30
6.72096e-30
6.72096e-30
6.72095e-30
6.72098e-30
6.72098e-30
6.72098e-30
6.72098e-30
6.72098e-30
6.72098e-30
6.72098e-30
6.72098e-30
6.72098e-30
6.72098e-30
6.72097e-30
6.72097e-30
6.72097e-30
6.72097e-30
6.72097e-30
6.72096e-30
6.72096e-30
6.72096e-30
6.72095e-30
6.72095e-30
6.72097e-30
6.72097e-30
6.72097e-30
6.72097e-30
6.72097e-30
6.72097e-30
6.72097e-30
6.72097e-30
6.72097e-30
6.72097e-30
6.72096e-30
6.72096e-30
6.72096e-30
6.72096e-30
6.72096e-30
6.72096e-30
6.72096e-30
6.72095e-30
6.72095e-30
6.72095e-30
6.72096e-30
6.72096e-30
6.72096e-30
6.72096e-30
6.72096e-30
6.72096e-30
6.72096e-30
6.72096e-30
6.72096e-30
6.72096e-30
6.72096e-30
6.72096e-30
6.72096e-30
6.72096e-30
6.72096e-30
6.72095e-30
6.72095e-30
6.72095e-30
6.72095e-30
6.72095e-30
6.72096e-30
6.72096e-30
6.72096e-30
6.72096e-30
6.72096e-30
6.72096e-30
6.72096e-30
6.72096e-30
6.72096e-30
6.72096e-30
6.72096e-30
6.72096e-30
6.72095e-30
6.72095e-30
6.72095e-30
6.72095e-30
6.72095e-30
6.72095e-30
6.72095e-30
6.72095e-30
6.72096e-30
6.72096e-30
6.72096e-30
6.72096e-30
6.72096e-30
6.72096e-30
6.72096e-30
6.72096e-30
6.72095e-30
6.72095e-30
6.72095e-30
6.72095e-30
6.72095e-30
6.72095e-30
6.72095e-30
6.72095e-30
6.72095e-30
6.72095e-30
6.72095e-30
6.72095e-30
)
;

boundaryField
{
    topWall
    {
        type            zeroGradient;
    }
    bottomWall
    {
        type            zeroGradient;
    }
    sideWallL
    {
        type            symmetry;
    }
    sideWallR
    {
        type            zeroGradient;
    }
    frontAndBack
    {
        type            empty;
    }
}


// ************************************************************************* //
