/*--------------------------------*- C++ -*----------------------------------*\
  =========                 |
  \\      /  F ield         | OpenFOAM: The Open Source CFD Toolbox
   \\    /   O peration     | Website:  https://openfoam.org
    \\  /    A nd           | Version:  7
     \\/     M anipulation  |
\*---------------------------------------------------------------------------*/
FoamFile
{
    version     2.0;
    format      ascii;
    class       volScalarField;
    location    "17";
    object      rhog;
}
// * * * * * * * * * * * * * * * * * * * * * * * * * * * * * * * * * * * * * //

dimensions      [1 -3 0 0 0 0 0];

internalField   nonuniform List<scalar> 
900
(
9.58019e-07
9.57626e-07
9.56796e-07
9.55435e-07
9.53387e-07
9.50417e-07
9.4618e-07
9.40177e-07
9.31684e-07
9.19651e-07
9.02545e-07
8.78098e-07
8.42919e-07
7.91886e-07
7.17214e-07
6.07345e-07
4.47607e-07
2.3515e-07
4.44054e-08
1.37047e-10
5.48755e-08
5.4802e-08
5.46469e-08
5.43935e-08
5.40143e-08
5.34684e-08
5.26977e-08
5.16211e-08
5.01283e-08
4.80718e-08
4.52611e-08
4.14646e-08
3.64323e-08
2.99717e-08
2.21321e-08
1.35562e-08
5.87548e-09
1.27397e-09
6.10374e-11
9.25371e-14
3.58589e-09
3.57745e-09
3.5597e-09
3.53081e-09
3.48785e-09
3.42659e-09
3.34118e-09
3.22391e-09
3.06508e-09
2.8532e-09
2.57619e-09
2.22439e-09
1.79673e-09
1.31094e-09
8.157e-10
3.92553e-10
1.23171e-10
1.86246e-11
8.15597e-13
6.06214e-15
2.78382e-10
2.7745e-10
2.75495e-10
2.7233e-10
2.67657e-10
2.61059e-10
2.51985e-10
2.39752e-10
2.23579e-10
2.0269e-10
1.76533e-10
1.4517e-10
1.09854e-10
7.35919e-11
4.11497e-11
1.75545e-11
4.9904e-12
7.81191e-13
5.47251e-14
1.92575e-15
2.65667e-11
2.64548e-11
2.62207e-11
2.58436e-11
2.52909e-11
2.45182e-11
2.34696e-11
2.20802e-11
2.02839e-11
1.80296e-11
1.53084e-11
1.21935e-11
8.88133e-12
5.70609e-12
3.07511e-12
1.29827e-12
3.93759e-13
7.84175e-14
1.00092e-14
1.09237e-15
3.19829e-12
3.18277e-12
3.15039e-12
3.09847e-12
3.02289e-12
2.9182e-12
2.77778e-12
2.59447e-12
2.36185e-12
2.07647e-12
1.74123e-12
1.36944e-12
9.87692e-13
6.34276e-13
3.49351e-13
1.57894e-13
5.60316e-14
1.52748e-14
3.39591e-15
7.95799e-16
4.93895e-13
4.91324e-13
4.85975e-13
4.77431e-13
4.6507e-13
4.48078e-13
4.25506e-13
3.96381e-13
3.59924e-13
3.15889e-13
2.65026e-13
2.09556e-13
1.53395e-13
1.01728e-13
5.9652e-14
3.02093e-14
1.30311e-14
4.86201e-15
1.69836e-15
6.57145e-16
9.86099e-14
9.80934e-14
9.70209e-14
9.53137e-14
9.28554e-14
8.94967e-14
8.50668e-14
7.93972e-14
7.23618e-14
6.3937e-14
5.42773e-14
4.37858e-14
3.3137e-14
2.31994e-14
1.48273e-14
8.57815e-15
4.51006e-15
2.21683e-15
1.08643e-15
5.81894e-16
2.54718e-14
2.53455e-14
2.50838e-14
2.46683e-14
2.40722e-14
2.32612e-14
2.21968e-14
2.0841e-14
1.9166e-14
1.71659e-14
1.48723e-14
1.23682e-14
9.79177e-15
7.32281e-15
5.14596e-15
3.39955e-15
2.13422e-15
1.30657e-15
8.12626e-16
5.37254e-16
8.46898e-15
8.43171e-15
8.35455e-15
8.23231e-15
8.05737e-15
7.82006e-15
7.50946e-15
7.11477e-15
6.6276e-15
6.04511e-15
5.37378e-15
4.63278e-15
3.85543e-15
3.08668e-15
2.37568e-15
1.76464e-15
1.27833e-15
9.19327e-16
6.71518e-16
5.09242e-16
3.58198e-15
3.56889e-15
3.54182e-15
3.49899e-15
3.43782e-15
3.35499e-15
3.24672e-15
3.10922e-15
2.93931e-15
2.7354e-15
2.49858e-15
2.23371e-15
1.94997e-15
1.6605e-15
1.3807e-15
1.12549e-15
9.0618e-16
7.28348e-16
5.91591e-16
4.91008e-16
1.88482e-15
1.87946e-15
1.86838e-15
1.85089e-15
1.82592e-15
1.79215e-15
1.74805e-15
1.69202e-15
1.62263e-15
1.53898e-15
1.44104e-15
1.33005e-15
1.20883e-15
1.08171e-15
9.54186e-16
8.32135e-16
7.20803e-16
6.23939e-16
5.43323e-16
4.78849e-16
1.19202e-15
1.18952e-15
1.18436e-15
1.17621e-15
1.16459e-15
1.1489e-15
1.12841e-15
1.10237e-15
1.07005e-15
1.03093e-15
9.84784e-16
9.31905e-16
8.73201e-16
8.10253e-16
7.45228e-16
6.80648e-16
6.19049e-16
5.62609e-16
5.1287e-16
4.70611e-16
8.69129e-16
8.67832e-16
8.65154e-16
8.6093e-16
8.54919e-16
8.46804e-16
8.36217e-16
8.22755e-16
8.06029e-16
7.85714e-16
7.61619e-16
7.33768e-16
7.02461e-16
6.68319e-16
6.32268e-16
5.95475e-16
5.59219e-16
5.24737e-16
4.93073e-16
4.64972e-16
7.02035e-16
7.01301e-16
6.9979e-16
6.97408e-16
6.94023e-16
6.8946e-16
6.83513e-16
6.75955e-16
6.6656e-16
6.55127e-16
6.41518e-16
6.25694e-16
6.07749e-16
5.87942e-16
5.66698e-16
5.44593e-16
5.22301e-16
5.0053e-16
4.79942e-16
4.6109e-16
6.08358e-16
6.07916e-16
6.07006e-16
6.05574e-16
6.03542e-16
6.00807e-16
5.97248e-16
5.92732e-16
5.8712e-16
5.80289e-16
5.72142e-16
5.62635e-16
5.51794e-16
5.39732e-16
5.26658e-16
5.12872e-16
4.98744e-16
4.84688e-16
4.71118e-16
4.5841e-16
5.5262e-16
5.52341e-16
5.51766e-16
5.50863e-16
5.49584e-16
5.47867e-16
5.45637e-16
5.42813e-16
5.39308e-16
5.35045e-16
5.2996e-16
5.24016e-16
5.17218e-16
5.09619e-16
5.01326e-16
4.92505e-16
4.83367e-16
4.7416e-16
4.6514e-16
4.56558e-16
5.17995e-16
5.17812e-16
5.17437e-16
5.16848e-16
5.16016e-16
5.14901e-16
5.13458e-16
5.11634e-16
5.09376e-16
5.06634e-16
5.03366e-16
4.99547e-16
4.95174e-16
4.90275e-16
4.84907e-16
4.79167e-16
4.73179e-16
4.67094e-16
4.61074e-16
4.5528e-16
4.95821e-16
4.95699e-16
4.95448e-16
4.95055e-16
4.94502e-16
4.93762e-16
4.92807e-16
4.91604e-16
4.90118e-16
4.88319e-16
4.86178e-16
4.8368e-16
4.8082e-16
4.77614e-16
4.74095e-16
4.70321e-16
4.66367e-16
4.62327e-16
4.58304e-16
4.54401e-16
4.81325e-16
4.81243e-16
4.81073e-16
4.80807e-16
4.80434e-16
4.79936e-16
4.79296e-16
4.78491e-16
4.77501e-16
4.76306e-16
4.74887e-16
4.73235e-16
4.71346e-16
4.69229e-16
4.66906e-16
4.64411e-16
4.61791e-16
4.59105e-16
4.56418e-16
4.53799e-16
4.71724e-16
4.71667e-16
4.71551e-16
4.7137e-16
4.71117e-16
4.7078e-16
4.70347e-16
4.69805e-16
4.69141e-16
4.68341e-16
4.67395e-16
4.66296e-16
4.65043e-16
4.6364e-16
4.62101e-16
4.60448e-16
4.58711e-16
4.56927e-16
4.55138e-16
4.53387e-16
4.65316e-16
4.65277e-16
4.65198e-16
4.65074e-16
4.64901e-16
4.64672e-16
4.64379e-16
4.64014e-16
4.63567e-16
4.63031e-16
4.62399e-16
4.61667e-16
4.60834e-16
4.59903e-16
4.58884e-16
4.5779e-16
4.5664e-16
4.55459e-16
4.54272e-16
4.53108e-16
4.61025e-16
4.60999e-16
4.60945e-16
4.6086e-16
4.60743e-16
4.60587e-16
4.60389e-16
4.60143e-16
4.59842e-16
4.59484e-16
4.59062e-16
4.58574e-16
4.58021e-16
4.57405e-16
4.56732e-16
4.5601e-16
4.55252e-16
4.54472e-16
4.53689e-16
4.52919e-16
4.58152e-16
4.58134e-16
4.58097e-16
4.5804e-16
4.5796e-16
4.57855e-16
4.57721e-16
4.57556e-16
4.57355e-16
4.57115e-16
4.56835e-16
4.56512e-16
4.56146e-16
4.5574e-16
4.55296e-16
4.54822e-16
4.54324e-16
4.53812e-16
4.53298e-16
4.52793e-16
4.56233e-16
4.5622e-16
4.56195e-16
4.56157e-16
4.56103e-16
4.56032e-16
4.55943e-16
4.55832e-16
4.55698e-16
4.55539e-16
4.55353e-16
4.5514e-16
4.549e-16
4.54633e-16
4.54343e-16
4.54032e-16
4.53707e-16
4.53374e-16
4.53038e-16
4.52709e-16
4.54956e-16
4.54947e-16
4.5493e-16
4.54905e-16
4.54868e-16
4.54821e-16
4.54762e-16
4.54688e-16
4.546e-16
4.54495e-16
4.54373e-16
4.54233e-16
4.54075e-16
4.53902e-16
4.53713e-16
4.53511e-16
4.533e-16
4.53084e-16
4.52867e-16
4.52653e-16
4.5411e-16
4.54105e-16
4.54094e-16
4.54076e-16
4.54052e-16
4.54021e-16
4.53982e-16
4.53933e-16
4.53875e-16
4.53806e-16
4.53727e-16
4.53636e-16
4.53534e-16
4.53421e-16
4.53299e-16
4.53169e-16
4.53033e-16
4.52894e-16
4.52754e-16
4.52616e-16
4.53555e-16
4.53551e-16
4.53544e-16
4.53532e-16
4.53516e-16
4.53496e-16
4.5347e-16
4.53438e-16
4.53401e-16
4.53356e-16
4.53304e-16
4.53245e-16
4.5318e-16
4.53107e-16
4.53029e-16
4.52945e-16
4.52858e-16
4.52769e-16
4.5268e-16
4.52592e-16
4.53192e-16
4.5319e-16
4.53185e-16
4.53177e-16
4.53167e-16
4.53154e-16
4.53137e-16
4.53116e-16
4.53092e-16
4.53063e-16
4.5303e-16
4.52992e-16
4.5295e-16
4.52904e-16
4.52854e-16
4.52801e-16
4.52746e-16
4.52689e-16
4.52633e-16
4.52577e-16
4.52957e-16
4.52955e-16
4.52952e-16
4.52947e-16
4.52941e-16
4.52932e-16
4.52921e-16
4.52908e-16
4.52892e-16
4.52874e-16
4.52853e-16
4.52829e-16
4.52802e-16
4.52773e-16
4.52741e-16
4.52708e-16
4.52673e-16
4.52638e-16
4.52602e-16
4.52567e-16
4.52806e-16
4.52805e-16
4.52803e-16
4.528e-16
4.52795e-16
4.5279e-16
4.52783e-16
4.52775e-16
4.52765e-16
4.52753e-16
4.5274e-16
4.52725e-16
4.52708e-16
4.52689e-16
4.5267e-16
4.52649e-16
4.52627e-16
4.52605e-16
4.52583e-16
4.52561e-16
4.5271e-16
4.52709e-16
4.52708e-16
4.52706e-16
4.52703e-16
4.527e-16
4.52695e-16
4.5269e-16
4.52684e-16
4.52676e-16
4.52668e-16
4.52658e-16
4.52648e-16
4.52637e-16
4.52624e-16
4.52611e-16
4.52598e-16
4.52584e-16
4.5257e-16
4.52557e-16
4.52649e-16
4.52648e-16
4.52648e-16
4.52646e-16
4.52645e-16
4.52642e-16
4.5264e-16
4.52636e-16
4.52632e-16
4.52628e-16
4.52623e-16
4.52617e-16
4.5261e-16
4.52603e-16
4.52596e-16
4.52588e-16
4.52579e-16
4.52571e-16
4.52563e-16
4.52554e-16
4.52611e-16
4.5261e-16
4.5261e-16
4.52609e-16
4.52608e-16
4.52607e-16
4.52605e-16
4.52603e-16
4.52601e-16
4.52598e-16
4.52595e-16
4.52591e-16
4.52587e-16
4.52583e-16
4.52578e-16
4.52573e-16
4.52568e-16
4.52563e-16
4.52558e-16
4.52553e-16
4.52587e-16
4.52587e-16
4.52586e-16
4.52586e-16
4.52585e-16
4.52585e-16
4.52583e-16
4.52582e-16
4.52581e-16
4.52579e-16
4.52577e-16
4.52575e-16
4.52572e-16
4.5257e-16
4.52567e-16
4.52564e-16
4.52561e-16
4.52558e-16
4.52555e-16
4.52552e-16
4.52572e-16
4.52572e-16
4.52572e-16
4.52572e-16
4.52571e-16
4.52571e-16
4.5257e-16
4.5257e-16
4.52569e-16
4.52568e-16
4.52566e-16
4.52565e-16
4.52564e-16
4.52562e-16
4.5256e-16
4.52559e-16
4.52557e-16
4.52555e-16
4.52553e-16
4.52551e-16
4.52563e-16
4.52563e-16
4.52563e-16
4.52563e-16
4.52563e-16
4.52563e-16
4.52562e-16
4.52562e-16
4.52561e-16
4.52561e-16
4.5256e-16
4.52559e-16
4.52558e-16
4.52557e-16
4.52556e-16
4.52555e-16
4.52554e-16
4.52553e-16
4.52552e-16
4.52551e-16
4.52558e-16
4.52558e-16
4.52558e-16
4.52558e-16
4.52558e-16
4.52558e-16
4.52557e-16
4.52557e-16
4.52557e-16
4.52556e-16
4.52556e-16
4.52556e-16
4.52555e-16
4.52554e-16
4.52554e-16
4.52553e-16
4.52553e-16
4.52552e-16
4.52551e-16
4.52551e-16
4.52555e-16
4.52555e-16
4.52555e-16
4.52555e-16
4.52555e-16
4.52555e-16
4.52554e-16
4.52554e-16
4.52554e-16
4.52554e-16
4.52554e-16
4.52553e-16
4.52553e-16
4.52553e-16
4.52552e-16
4.52552e-16
4.52552e-16
4.52551e-16
4.52551e-16
4.5255e-16
4.52553e-16
4.52553e-16
4.52553e-16
4.52553e-16
4.52553e-16
4.52553e-16
4.52553e-16
4.52553e-16
4.52553e-16
4.52552e-16
4.52552e-16
4.52552e-16
4.52552e-16
4.52552e-16
4.52552e-16
4.52551e-16
4.52551e-16
4.52551e-16
4.52551e-16
4.5255e-16
4.52552e-16
4.52552e-16
4.52552e-16
4.52552e-16
4.52552e-16
4.52552e-16
4.52552e-16
4.52552e-16
4.52552e-16
4.52552e-16
4.52551e-16
4.52551e-16
4.52551e-16
4.52551e-16
4.52551e-16
4.52551e-16
4.52551e-16
4.52551e-16
4.5255e-16
4.5255e-16
4.52551e-16
4.52551e-16
4.52551e-16
4.52551e-16
4.52551e-16
4.52551e-16
4.52551e-16
4.52551e-16
4.52551e-16
4.52551e-16
4.52551e-16
4.52551e-16
4.52551e-16
4.52551e-16
4.52551e-16
4.52551e-16
4.52551e-16
4.5255e-16
4.5255e-16
4.5255e-16
4.52551e-16
4.52551e-16
4.52551e-16
4.52551e-16
4.52551e-16
4.52551e-16
4.52551e-16
4.52551e-16
4.52551e-16
4.52551e-16
4.52551e-16
4.52551e-16
4.52551e-16
4.52551e-16
4.52551e-16
4.52551e-16
4.5255e-16
4.5255e-16
4.5255e-16
4.5255e-16
4.52551e-16
4.52551e-16
4.52551e-16
4.52551e-16
4.52551e-16
4.52551e-16
4.52551e-16
4.52551e-16
4.52551e-16
4.52551e-16
4.52551e-16
4.52551e-16
4.52551e-16
4.5255e-16
4.5255e-16
4.5255e-16
4.5255e-16
4.5255e-16
4.5255e-16
4.5255e-16
4.52551e-16
4.52551e-16
4.52551e-16
4.52551e-16
4.52551e-16
4.52551e-16
4.52551e-16
4.52551e-16
4.52551e-16
4.52551e-16
4.5255e-16
4.5255e-16
4.5255e-16
4.5255e-16
4.5255e-16
4.5255e-16
4.5255e-16
4.5255e-16
4.5255e-16
4.5255e-16
)
;

boundaryField
{
    topWall
    {
        type            calculated;
        value           uniform 0;
    }
    bottomWall
    {
        type            zeroGradient;
    }
    sideWallL
    {
        type            symmetry;
    }
    sideWallR
    {
        type            calculated;
        value           uniform 0;
    }
    frontAndBack
    {
        type            empty;
    }
}


// ************************************************************************* //
