/*--------------------------------*- C++ -*----------------------------------*\
  =========                 |
  \\      /  F ield         | OpenFOAM: The Open Source CFD Toolbox
   \\    /   O peration     | Website:  https://openfoam.org
    \\  /    A nd           | Version:  7
     \\/     M anipulation  |
\*---------------------------------------------------------------------------*/
FoamFile
{
    version     2.0;
    format      ascii;
    class       volScalarField;
    location    "17";
    object      rhois;
}
// * * * * * * * * * * * * * * * * * * * * * * * * * * * * * * * * * * * * * //

dimensions      [1 -3 0 0 0 0 0];

internalField   nonuniform List<scalar> 
900
(
4.52893e-05
4.52764e-05
4.52489e-05
4.52038e-05
4.51359e-05
4.5037e-05
4.48953e-05
4.46938e-05
4.44073e-05
4.39989e-05
4.34142e-05
4.25708e-05
4.13423e-05
3.95297e-05
3.68112e-05
3.26534e-05
2.61961e-05
1.64502e-05
4.93036e-06
7.67387e-08
5.58055e-06
5.57533e-06
5.56431e-06
5.54624e-06
5.51911e-06
5.47987e-06
5.42412e-06
5.34564e-06
5.23572e-06
5.08232e-06
4.86902e-06
4.57403e-06
4.16987e-06
3.62563e-06
2.9165e-06
2.05041e-06
1.12366e-06
3.74222e-07
4.23182e-08
4.27542e-10
7.61126e-07
7.59878e-07
7.57248e-07
7.52952e-07
7.46534e-07
7.37317e-07
7.24353e-07
7.06348e-07
6.81585e-07
6.47873e-07
6.02567e-07
5.42799e-07
4.66157e-07
3.72192e-07
2.65105e-07
1.57075e-07
6.85372e-08
1.77865e-08
1.93382e-09
6.47726e-11
1.18405e-07
1.1813e-07
1.17552e-07
1.16611e-07
1.15213e-07
1.13222e-07
1.10452e-07
1.0666e-07
1.01545e-07
9.47567e-08
8.5938e-08
7.48176e-08
6.13882e-08
4.61789e-08
3.05419e-08
1.66652e-08
6.82382e-09
1.84078e-09
2.87928e-10
2.95936e-11
2.1551e-08
2.14883e-08
2.13569e-08
2.11439e-08
2.08295e-08
2.03855e-08
1.97744e-08
1.89499e-08
1.78576e-08
1.64415e-08
1.46557e-08
1.24866e-08
9.9863e-09
7.30875e-09
4.72546e-09
2.57424e-09
1.11458e-09
3.62783e-10
8.88661e-11
2.00795e-11
4.68042e-09
4.66487e-09
4.63232e-09
4.57982e-09
4.50276e-09
4.39476e-09
4.24765e-09
4.05163e-09
3.79602e-09
3.47095e-09
3.07035e-09
2.59677e-09
2.06714e-09
1.5175e-09
1.00142e-09
5.76913e-10
2.82394e-10
1.16549e-10
4.26263e-11
1.61401e-11
1.22943e-09
1.2251e-09
1.21607e-09
1.20155e-09
1.18035e-09
1.15084e-09
1.111e-09
1.05845e-09
9.90776e-10
9.05918e-10
8.02971e-10
6.83234e-10
5.51334e-10
4.15864e-10
2.88611e-10
1.81679e-10
1.03102e-10
5.35141e-11
2.67531e-11
1.41268e-11
3.93627e-10
3.92259e-10
3.89407e-10
3.84838e-10
3.78198e-10
3.6901e-10
3.56687e-10
3.40566e-10
3.19985e-10
2.94415e-10
2.63668e-10
2.28159e-10
1.89161e-10
1.48922e-10
1.10444e-10
7.68297e-11
5.03425e-11
3.16561e-11
1.98202e-11
1.29705e-11
1.53916e-10
1.53422e-10
1.52395e-10
1.50755e-10
1.48379e-10
1.45107e-10
1.40742e-10
1.35064e-10
1.27857e-10
1.18947e-10
1.08271e-10
9.59461e-11
8.2343e-11
6.81169e-11
5.4152e-11
4.14008e-11
3.06462e-11
2.2291e-11
1.62896e-11
1.2258e-11
7.31065e-11
7.29045e-11
7.24848e-11
7.18158e-11
7.08502e-11
6.95249e-11
6.77637e-11
6.54817e-11
6.25946e-11
5.90335e-11
5.47661e-11
4.98215e-11
4.43144e-11
3.84561e-11
3.25427e-11
2.69116e-11
2.18735e-11
1.76432e-11
1.43009e-11
1.17991e-11
4.15314e-11
4.14386e-11
4.12459e-11
4.09396e-11
4.04984e-11
3.98947e-11
3.90948e-11
3.80612e-11
3.6756e-11
3.51469e-11
3.32151e-11
3.0965e-11
2.8433e-11
2.56936e-11
2.28572e-11
2.00575e-11
1.74303e-11
1.50884e-11
1.31025e-11
1.14948e-11
2.74959e-11
2.74487e-11
2.73509e-11
2.71956e-11
2.69724e-11
2.66678e-11
2.62653e-11
2.57462e-11
2.50916e-11
2.42844e-11
2.33133e-11
2.21761e-11
2.08846e-11
1.94667e-11
1.79673e-11
1.64445e-11
1.49621e-11
1.35803e-11
1.23464e-11
1.12891e-11
2.05458e-11
2.05197e-11
2.04656e-11
2.03799e-11
2.0257e-11
2.00897e-11
1.9869e-11
1.95851e-11
1.92275e-11
1.87866e-11
1.82552e-11
1.76304e-11
1.69155e-11
1.61216e-11
1.52685e-11
1.43831e-11
1.34976e-11
1.26449e-11
1.18543e-11
1.11485e-11
1.67916e-11
1.67761e-11
1.67441e-11
1.66934e-11
1.66209e-11
1.65225e-11
1.6393e-11
1.62268e-11
1.60178e-11
1.57603e-11
1.54497e-11
1.50835e-11
1.46624e-11
1.41909e-11
1.36784e-11
1.31382e-11
1.25873e-11
1.20443e-11
1.15271e-11
1.10515e-11
1.46214e-11
1.46117e-11
1.45917e-11
1.45601e-11
1.45151e-11
1.4454e-11
1.4374e-11
1.42714e-11
1.41428e-11
1.39846e-11
1.37938e-11
1.35686e-11
1.33089e-11
1.30166e-11
1.26964e-11
1.23553e-11
1.20028e-11
1.16495e-11
1.13066e-11
1.09844e-11
1.33008e-11
1.32945e-11
1.32815e-11
1.32611e-11
1.32319e-11
1.31926e-11
1.31411e-11
1.30754e-11
1.29932e-11
1.28923e-11
1.27708e-11
1.26274e-11
1.24619e-11
1.22751e-11
1.20694e-11
1.1849e-11
1.16189e-11
1.13859e-11
1.11566e-11
1.09379e-11
1.24664e-11
1.24622e-11
1.24535e-11
1.24398e-11
1.24205e-11
1.23944e-11
1.23604e-11
1.23171e-11
1.22631e-11
1.21971e-11
1.21177e-11
1.20242e-11
1.19163e-11
1.17944e-11
1.16599e-11
1.15151e-11
1.13632e-11
1.12081e-11
1.10541e-11
1.09057e-11
1.19247e-11
1.19218e-11
1.19159e-11
1.19067e-11
1.18935e-11
1.18759e-11
1.1853e-11
1.1824e-11
1.17879e-11
1.17439e-11
1.16912e-11
1.16293e-11
1.15579e-11
1.14773e-11
1.13883e-11
1.12923e-11
1.11912e-11
1.10875e-11
1.0984e-11
1.08834e-11
1.15666e-11
1.15646e-11
1.15605e-11
1.15541e-11
1.15451e-11
1.15331e-11
1.15175e-11
1.14978e-11
1.14735e-11
1.14439e-11
1.14085e-11
1.13671e-11
1.13194e-11
1.12657e-11
1.12064e-11
1.11424e-11
1.1075e-11
1.10056e-11
1.0936e-11
1.08681e-11
1.13269e-11
1.13256e-11
1.13228e-11
1.13183e-11
1.13121e-11
1.13039e-11
1.12932e-11
1.12798e-11
1.12632e-11
1.12432e-11
1.12194e-11
1.11915e-11
1.11596e-11
1.11236e-11
1.1084e-11
1.10413e-11
1.09963e-11
1.09499e-11
1.09032e-11
1.08576e-11
1.11655e-11
1.11646e-11
1.11626e-11
1.11596e-11
1.11553e-11
1.11496e-11
1.11423e-11
1.11331e-11
1.11219e-11
1.11083e-11
1.10922e-11
1.10735e-11
1.1052e-11
1.1028e-11
1.10015e-11
1.09731e-11
1.0943e-11
1.09121e-11
1.08809e-11
1.08504e-11
1.10565e-11
1.10559e-11
1.10545e-11
1.10524e-11
1.10494e-11
1.10455e-11
1.10405e-11
1.10343e-11
1.10266e-11
1.10174e-11
1.10066e-11
1.0994e-11
1.09797e-11
1.09636e-11
1.0946e-11
1.0927e-11
1.09071e-11
1.08865e-11
1.08658e-11
1.08455e-11
1.09829e-11
1.09824e-11
1.09815e-11
1.098e-11
1.0978e-11
1.09753e-11
1.09719e-11
1.09677e-11
1.09625e-11
1.09563e-11
1.0949e-11
1.09406e-11
1.0931e-11
1.09204e-11
1.09087e-11
1.08961e-11
1.08829e-11
1.08693e-11
1.08557e-11
1.08422e-11
1.09333e-11
1.09329e-11
1.09323e-11
1.09313e-11
1.09299e-11
1.09281e-11
1.09258e-11
1.09229e-11
1.09195e-11
1.09153e-11
1.09104e-11
1.09048e-11
1.08985e-11
1.08914e-11
1.08837e-11
1.08754e-11
1.08667e-11
1.08578e-11
1.08488e-11
1.084e-11
1.09e-11
1.08997e-11
1.08993e-11
1.08986e-11
1.08977e-11
1.08965e-11
1.08949e-11
1.0893e-11
1.08907e-11
1.08879e-11
1.08847e-11
1.0881e-11
1.08768e-11
1.08721e-11
1.08671e-11
1.08617e-11
1.0856e-11
1.08501e-11
1.08443e-11
1.08385e-11
1.08777e-11
1.08776e-11
1.08773e-11
1.08769e-11
1.08762e-11
1.08754e-11
1.08744e-11
1.08731e-11
1.08715e-11
1.08697e-11
1.08676e-11
1.08651e-11
1.08624e-11
1.08594e-11
1.08561e-11
1.08525e-11
1.08489e-11
1.08451e-11
1.08413e-11
1.08375e-11
1.0863e-11
1.08629e-11
1.08627e-11
1.08624e-11
1.0862e-11
1.08615e-11
1.08608e-11
1.08599e-11
1.08589e-11
1.08577e-11
1.08563e-11
1.08547e-11
1.08529e-11
1.0851e-11
1.08488e-11
1.08466e-11
1.08442e-11
1.08417e-11
1.08393e-11
1.08369e-11
1.08533e-11
1.08532e-11
1.08531e-11
1.08529e-11
1.08526e-11
1.08523e-11
1.08518e-11
1.08513e-11
1.08506e-11
1.08498e-11
1.08489e-11
1.08479e-11
1.08467e-11
1.08455e-11
1.08441e-11
1.08427e-11
1.08411e-11
1.08396e-11
1.0838e-11
1.08365e-11
1.0847e-11
1.08469e-11
1.08468e-11
1.08467e-11
1.08465e-11
1.08463e-11
1.0846e-11
1.08456e-11
1.08452e-11
1.08447e-11
1.08441e-11
1.08435e-11
1.08427e-11
1.08419e-11
1.0841e-11
1.08401e-11
1.08392e-11
1.08382e-11
1.08372e-11
1.08362e-11
1.08429e-11
1.08428e-11
1.08428e-11
1.08427e-11
1.08426e-11
1.08424e-11
1.08422e-11
1.0842e-11
1.08417e-11
1.08414e-11
1.0841e-11
1.08406e-11
1.08401e-11
1.08396e-11
1.08391e-11
1.08385e-11
1.08379e-11
1.08373e-11
1.08366e-11
1.0836e-11
1.08402e-11
1.08402e-11
1.08402e-11
1.08401e-11
1.084e-11
1.08399e-11
1.08398e-11
1.08397e-11
1.08395e-11
1.08393e-11
1.08391e-11
1.08388e-11
1.08385e-11
1.08382e-11
1.08378e-11
1.08375e-11
1.08371e-11
1.08367e-11
1.08363e-11
1.08359e-11
1.08385e-11
1.08385e-11
1.08385e-11
1.08385e-11
1.08384e-11
1.08383e-11
1.08383e-11
1.08382e-11
1.08381e-11
1.08379e-11
1.08378e-11
1.08376e-11
1.08374e-11
1.08372e-11
1.0837e-11
1.08368e-11
1.08366e-11
1.08363e-11
1.08361e-11
1.08358e-11
1.08375e-11
1.08375e-11
1.08374e-11
1.08374e-11
1.08374e-11
1.08373e-11
1.08373e-11
1.08372e-11
1.08372e-11
1.08371e-11
1.0837e-11
1.08369e-11
1.08368e-11
1.08367e-11
1.08365e-11
1.08364e-11
1.08362e-11
1.08361e-11
1.08359e-11
1.08358e-11
1.08368e-11
1.08368e-11
1.08368e-11
1.08368e-11
1.08367e-11
1.08367e-11
1.08367e-11
1.08367e-11
1.08366e-11
1.08366e-11
1.08365e-11
1.08364e-11
1.08364e-11
1.08363e-11
1.08362e-11
1.08361e-11
1.0836e-11
1.0836e-11
1.08359e-11
1.08358e-11
1.08364e-11
1.08364e-11
1.08364e-11
1.08364e-11
1.08363e-11
1.08363e-11
1.08363e-11
1.08363e-11
1.08363e-11
1.08362e-11
1.08362e-11
1.08362e-11
1.08361e-11
1.08361e-11
1.0836e-11
1.0836e-11
1.08359e-11
1.08359e-11
1.08358e-11
1.08358e-11
1.08361e-11
1.08361e-11
1.08361e-11
1.08361e-11
1.08361e-11
1.08361e-11
1.08361e-11
1.08361e-11
1.08361e-11
1.0836e-11
1.0836e-11
1.0836e-11
1.0836e-11
1.08359e-11
1.08359e-11
1.08359e-11
1.08358e-11
1.08358e-11
1.08358e-11
1.08358e-11
1.0836e-11
1.0836e-11
1.0836e-11
1.0836e-11
1.0836e-11
1.08359e-11
1.08359e-11
1.08359e-11
1.08359e-11
1.08359e-11
1.08359e-11
1.08359e-11
1.08359e-11
1.08359e-11
1.08358e-11
1.08358e-11
1.08358e-11
1.08358e-11
1.08358e-11
1.08357e-11
1.08359e-11
1.08359e-11
1.08359e-11
1.08359e-11
1.08359e-11
1.08359e-11
1.08359e-11
1.08359e-11
1.08358e-11
1.08358e-11
1.08358e-11
1.08358e-11
1.08358e-11
1.08358e-11
1.08358e-11
1.08358e-11
1.08358e-11
1.08358e-11
1.08358e-11
1.08357e-11
1.08358e-11
1.08358e-11
1.08358e-11
1.08358e-11
1.08358e-11
1.08358e-11
1.08358e-11
1.08358e-11
1.08358e-11
1.08358e-11
1.08358e-11
1.08358e-11
1.08358e-11
1.08358e-11
1.08358e-11
1.08358e-11
1.08358e-11
1.08358e-11
1.08357e-11
1.08357e-11
1.08358e-11
1.08358e-11
1.08358e-11
1.08358e-11
1.08358e-11
1.08358e-11
1.08358e-11
1.08358e-11
1.08358e-11
1.08358e-11
1.08358e-11
1.08358e-11
1.08358e-11
1.08358e-11
1.08358e-11
1.08358e-11
1.08357e-11
1.08357e-11
1.08357e-11
1.08357e-11
1.08358e-11
1.08358e-11
1.08358e-11
1.08358e-11
1.08358e-11
1.08358e-11
1.08358e-11
1.08358e-11
1.08358e-11
1.08358e-11
1.08358e-11
1.08358e-11
1.08358e-11
1.08357e-11
1.08357e-11
1.08357e-11
1.08357e-11
1.08357e-11
1.08357e-11
1.08357e-11
1.08358e-11
1.08358e-11
1.08358e-11
1.08357e-11
1.08357e-11
1.08357e-11
1.08357e-11
1.08357e-11
1.08357e-11
1.08357e-11
1.08357e-11
1.08357e-11
1.08357e-11
1.08357e-11
1.08357e-11
1.08357e-11
1.08357e-11
1.08357e-11
1.08357e-11
1.08357e-11
1.08357e-11
1.08357e-11
1.08357e-11
1.08357e-11
1.08357e-11
1.08357e-11
1.08357e-11
1.08357e-11
1.08357e-11
1.08357e-11
1.08357e-11
1.08357e-11
1.08357e-11
1.08357e-11
1.08357e-11
1.08357e-11
1.08357e-11
1.08357e-11
1.08357e-11
1.08357e-11
1.08357e-11
1.08357e-11
1.08357e-11
1.08357e-11
1.08357e-11
1.08357e-11
1.08357e-11
1.08357e-11
1.08357e-11
1.08357e-11
1.08357e-11
1.08357e-11
1.08357e-11
1.08357e-11
1.08357e-11
1.08357e-11
1.08357e-11
1.08357e-11
1.08357e-11
1.08357e-11
1.08357e-11
1.08357e-11
1.08357e-11
1.08357e-11
1.08357e-11
1.08357e-11
1.08357e-11
1.08357e-11
1.08357e-11
1.08357e-11
1.08357e-11
1.08357e-11
1.08357e-11
1.08357e-11
1.08357e-11
1.08357e-11
1.08357e-11
1.08357e-11
1.08357e-11
1.08357e-11
)
;

boundaryField
{
    topWall
    {
        type            zeroGradient;
    }
    bottomWall
    {
        type            zeroGradient;
    }
    sideWallL
    {
        type            symmetry;
    }
    sideWallR
    {
        type            zeroGradient;
    }
    frontAndBack
    {
        type            empty;
    }
}


// ************************************************************************* //
