/*--------------------------------*- C++ -*----------------------------------*\
  =========                 |
  \\      /  F ield         | OpenFOAM: The Open Source CFD Toolbox
   \\    /   O peration     | Website:  https://openfoam.org
    \\  /    A nd           | Version:  7
     \\/     M anipulation  |
\*---------------------------------------------------------------------------*/
FoamFile
{
    version     2.0;
    format      ascii;
    class       volScalarField;
    location    "17";
    object      rhot2;
}
// * * * * * * * * * * * * * * * * * * * * * * * * * * * * * * * * * * * * * //

dimensions      [1 -3 0 0 0 0 0];

internalField   nonuniform List<scalar> 
900
(
3.25738e-12
3.25487e-12
3.24957e-12
3.24089e-12
3.22785e-12
3.20897e-12
3.18212e-12
3.14423e-12
3.09097e-12
3.01621e-12
2.91135e-12
2.76446e-12
2.55929e-12
2.2748e-12
1.88692e-12
1.3785e-12
7.74627e-13
2.29627e-13
9.8525e-15
1.7944e-19
1.45145e-14
1.4478e-14
1.44012e-14
1.4276e-14
1.40895e-14
1.3823e-14
1.34507e-14
1.29383e-14
1.2243e-14
1.13142e-14
1.01001e-14
8.56273e-15
6.709e-15
4.6425e-15
2.61985e-15
1.03873e-15
2.14359e-16
1.19688e-17
3.87584e-20
1.90716e-25
8.31654e-17
8.27984e-17
8.20287e-17
8.07829e-17
7.89466e-17
7.63608e-17
7.28215e-17
6.80887e-17
6.19137e-17
5.41027e-17
4.46358e-17
3.38487e-17
2.26346e-17
1.24933e-17
5.10642e-18
1.28548e-18
1.44442e-19
4.10081e-21
1.1323e-23
1.15121e-27
6.61713e-19
6.57564e-19
6.48899e-19
6.34976e-19
6.14675e-19
5.86525e-19
5.48804e-19
4.99791e-19
4.38274e-19
3.64418e-19
2.80966e-19
1.94405e-19
1.14998e-19
5.40663e-20
1.80821e-20
3.63206e-21
3.39761e-22
1.0355e-23
7.01569e-26
1.35407e-28
7.80002e-21
7.73856e-21
7.61071e-21
7.40671e-21
7.11236e-21
6.71008e-21
6.18142e-21
5.51198e-21
4.69962e-21
3.76602e-21
2.76862e-21
1.8047e-21
9.94053e-22
4.32346e-22
1.35079e-22
2.66667e-23
2.8291e-24
1.36639e-25
2.89847e-27
4.71174e-29
1.43068e-22
1.41771e-22
1.39083e-22
1.34821e-22
1.28725e-22
1.20496e-22
1.09854e-22
9.6649e-23
8.1028e-23
6.36264e-23
4.57116e-23
2.91119e-23
1.57551e-23
6.85535e-24
2.2359e-24
5.03359e-25
7.21145e-26
6.33553e-27
3.84816e-28
2.6137e-29
4.21564e-24
4.17473e-24
4.09019e-24
3.9568e-24
3.76737e-24
3.51397e-24
3.18995e-24
2.79336e-24
2.3315e-24
1.82571e-24
1.31376e-24
8.45898e-25
4.71312e-25
2.18258e-25
8.02912e-26
2.24722e-26
4.67186e-27
7.45061e-28
1.06038e-28
1.83056e-29
2.02677e-25
2.00703e-25
1.96633e-25
1.90232e-25
1.81184e-25
1.69149e-25
1.53858e-25
1.35266e-25
1.13742e-25
9.02562e-26
6.64576e-26
4.44849e-26
2.64297e-26
1.3581e-26
5.89126e-27
2.12566e-27
6.43711e-28
1.72778e-28
4.63066e-29
1.4598e-29
1.59329e-26
1.57866e-26
1.54854e-26
1.50127e-26
1.43459e-26
1.34611e-26
1.23388e-26
1.09745e-26
9.39093e-27
7.65014e-27
5.8587e-27
4.15788e-27
2.69325e-27
1.56996e-27
8.15963e-28
3.7871e-28
1.60265e-28
6.48749e-29
2.7049e-29
1.25822e-29
2.02979e-27
2.01334e-27
1.97949e-27
1.92638e-27
1.85149e-27
1.75205e-27
1.62567e-27
1.4713e-27
1.2905e-27
1.08868e-27
8.75776e-28
6.65747e-28
4.74216e-28
3.14594e-28
1.94169e-28
1.12334e-28
6.21053e-29
3.38851e-29
1.90034e-29
1.13879e-29
4.09513e-28
4.06778e-28
4.01146e-28
3.92308e-28
3.79832e-28
3.63225e-28
3.4202e-28
3.15917e-28
2.84962e-28
2.49733e-28
2.11491e-28
1.72177e-28
1.34192e-28
9.99389e-29
7.12573e-29
4.89959e-29
3.29287e-29
2.20466e-29
1.50284e-29
1.064e-29
1.25053e-28
1.24408e-28
1.23079e-28
1.2099e-28
1.18038e-28
1.14094e-28
1.09033e-28
1.02748e-28
9.51963e-29
8.64359e-29
7.66632e-29
6.62303e-29
5.56256e-29
4.54078e-29
3.61043e-29
2.81062e-29
2.16007e-29
1.65681e-29
1.28352e-29
1.01542e-29
5.39181e-29
5.37138e-29
5.32927e-29
5.26309e-29
5.16935e-29
5.04382e-29
4.88191e-29
4.67937e-29
4.43325e-29
4.14306e-29
3.81195e-29
3.44754e-29
3.06206e-29
2.67132e-29
2.29265e-29
1.94208e-29
1.63176e-29
1.36842e-29
1.15326e-29
9.83107e-30
3.02536e-29
3.01721e-29
3.0004e-29
2.97398e-29
2.93652e-29
2.88626e-29
2.82122e-29
2.73942e-29
2.63919e-29
2.51959e-29
2.38082e-29
2.22466e-29
2.05461e-29
1.87586e-29
1.69483e-29
1.51833e-29
1.35268e-29
1.20285e-29
1.07197e-29
9.61267e-30
2.04803e-29
2.04416e-29
2.03619e-29
2.02366e-29
2.00589e-29
1.98204e-29
1.95113e-29
1.91211e-29
1.86407e-29
1.80628e-29
1.73847e-29
1.661e-29
1.57496e-29
1.48224e-29
1.38547e-29
1.28773e-29
1.19226e-29
1.10205e-29
1.01953e-29
9.46364e-30
1.57596e-29
1.57388e-29
1.5696e-29
1.56288e-29
1.55335e-29
1.54057e-29
1.524e-29
1.50306e-29
1.47721e-29
1.44597e-29
1.40907e-29
1.36651e-29
1.31862e-29
1.26617e-29
1.21033e-29
1.15259e-29
1.09464e-29
1.03823e-29
9.84958e-30
9.36138e-30
1.32136e-29
1.32014e-29
1.31764e-29
1.31371e-29
1.30814e-29
1.30069e-29
1.29103e-29
1.27883e-29
1.26376e-29
1.24551e-29
1.22389e-29
1.1988e-29
1.17036e-29
1.1389e-29
1.10496e-29
1.06932e-29
1.03291e-29
9.96748e-30
9.61842e-30
9.29105e-30
1.17316e-29
1.1724e-29
1.17085e-29
1.16841e-29
1.16496e-29
1.16035e-29
1.1544e-29
1.14688e-29
1.1376e-29
1.12637e-29
1.11304e-29
1.09754e-29
1.0799e-29
1.06026e-29
1.03892e-29
1.01628e-29
9.92884e-30
9.69332e-30
9.46258e-30
9.24267e-30
1.08228e-29
1.08179e-29
1.08078e-29
1.07921e-29
1.07699e-29
1.07403e-29
1.07021e-29
1.06541e-29
1.05949e-29
1.05233e-29
1.04384e-29
1.03396e-29
1.0227e-29
1.01012e-29
9.96397e-30
9.81755e-30
9.66509e-30
9.51028e-30
9.35708e-30
9.20946e-30
1.02457e-29
1.02424e-29
1.02357e-29
1.02253e-29
1.02107e-29
1.01912e-29
1.01662e-29
1.01347e-29
1.0096e-29
1.00494e-29
9.99417e-30
9.92997e-30
9.85677e-30
9.77498e-30
9.68551e-30
9.58976e-30
9.48964e-30
9.38741e-30
9.28558e-30
9.18673e-30
9.87077e-30
9.86858e-30
9.8641e-30
9.85712e-30
9.84732e-30
9.83431e-30
9.81762e-30
9.79674e-30
9.77115e-30
9.74036e-30
9.70399e-30
9.66178e-30
9.61372e-30
9.56004e-30
9.5013e-30
9.43835e-30
9.37237e-30
9.30478e-30
9.23719e-30
9.17124e-30
9.62384e-30
9.62236e-30
9.61933e-30
9.6146e-30
9.60799e-30
9.59924e-30
9.58805e-30
9.57409e-30
9.55703e-30
9.53658e-30
9.51248e-30
9.48458e-30
9.45287e-30
9.41751e-30
9.37882e-30
9.33737e-30
9.29388e-30
9.24926e-30
9.20452e-30
9.16073e-30
9.45997e-30
9.45896e-30
9.4569e-30
9.4537e-30
9.44923e-30
9.44333e-30
9.43581e-30
9.42646e-30
9.41507e-30
9.40145e-30
9.38546e-30
9.36699e-30
9.34606e-30
9.32275e-30
9.29728e-30
9.27002e-30
9.24141e-30
9.21204e-30
9.18256e-30
9.15364e-30
9.35089e-30
9.35021e-30
9.34881e-30
9.34665e-30
9.34363e-30
9.33966e-30
9.33461e-30
9.32835e-30
9.32076e-30
9.31171e-30
9.30111e-30
9.28891e-30
9.27511e-30
9.25978e-30
9.24306e-30
9.22519e-30
9.20644e-30
9.1872e-30
9.16787e-30
9.14889e-30
9.27831e-30
9.27785e-30
9.27691e-30
9.27545e-30
9.27342e-30
9.27076e-30
9.26738e-30
9.26321e-30
9.25817e-30
9.25218e-30
9.24518e-30
9.23715e-30
9.22809e-30
9.21805e-30
9.20713e-30
9.19546e-30
9.18324e-30
9.1707e-30
9.1581e-30
9.14572e-30
9.23016e-30
9.22985e-30
9.22921e-30
9.22824e-30
9.22688e-30
9.22511e-30
9.22286e-30
9.2201e-30
9.21677e-30
9.21282e-30
9.20823e-30
9.20297e-30
9.19706e-30
9.19052e-30
9.18342e-30
9.17584e-30
9.16792e-30
9.1598e-30
9.15164e-30
9.14363e-30
9.19835e-30
9.19814e-30
9.19772e-30
9.19707e-30
9.19617e-30
9.195e-30
9.19352e-30
9.1917e-30
9.18951e-30
9.18693e-30
9.18394e-30
9.18052e-30
9.17668e-30
9.17245e-30
9.16786e-30
9.16298e-30
9.15788e-30
9.15265e-30
9.14741e-30
9.14225e-30
9.17746e-30
9.17732e-30
9.17705e-30
9.17662e-30
9.17603e-30
9.17526e-30
9.17429e-30
9.1731e-30
9.17168e-30
9.17e-30
9.16806e-30
9.16585e-30
9.16338e-30
9.16066e-30
9.15772e-30
9.15459e-30
9.15133e-30
9.14799e-30
9.14465e-30
9.14136e-30
9.16384e-30
9.16375e-30
9.16357e-30
9.16329e-30
9.1629e-30
9.1624e-30
9.16177e-30
9.161e-30
9.16008e-30
9.159e-30
9.15776e-30
9.15634e-30
9.15476e-30
9.15303e-30
9.15115e-30
9.14917e-30
9.1471e-30
9.14498e-30
9.14286e-30
9.14078e-30
9.15502e-30
9.15496e-30
9.15484e-30
9.15466e-30
9.15441e-30
9.15409e-30
9.15368e-30
9.15319e-30
9.1526e-30
9.15191e-30
9.15112e-30
9.15022e-30
9.14922e-30
9.14812e-30
9.14694e-30
9.14568e-30
9.14438e-30
9.14305e-30
9.14171e-30
9.1404e-30
9.14935e-30
9.14931e-30
9.14924e-30
9.14912e-30
9.14896e-30
9.14876e-30
9.1485e-30
9.14819e-30
9.14781e-30
9.14738e-30
9.14687e-30
9.14631e-30
9.14568e-30
9.14499e-30
9.14425e-30
9.14346e-30
9.14265e-30
9.14182e-30
9.14098e-30
9.14017e-30
9.14574e-30
9.14572e-30
9.14567e-30
9.1456e-30
9.1455e-30
9.14537e-30
9.1452e-30
9.145e-30
9.14477e-30
9.1445e-30
9.14418e-30
9.14383e-30
9.14343e-30
9.14301e-30
9.14254e-30
9.14206e-30
9.14155e-30
9.14104e-30
9.14052e-30
9.14002e-30
9.14346e-30
9.14345e-30
9.14342e-30
9.14337e-30
9.14331e-30
9.14323e-30
9.14312e-30
9.143e-30
9.14285e-30
9.14268e-30
9.14249e-30
9.14227e-30
9.14203e-30
9.14176e-30
9.14148e-30
9.14118e-30
9.14087e-30
9.14055e-30
9.14023e-30
9.13992e-30
9.14203e-30
9.14202e-30
9.14201e-30
9.14198e-30
9.14194e-30
9.14189e-30
9.14182e-30
9.14175e-30
9.14166e-30
9.14155e-30
9.14143e-30
9.1413e-30
9.14115e-30
9.14099e-30
9.14081e-30
9.14063e-30
9.14044e-30
9.14025e-30
9.14005e-30
9.13986e-30
9.14115e-30
9.14114e-30
9.14113e-30
9.14111e-30
9.14109e-30
9.14106e-30
9.14102e-30
9.14097e-30
9.14091e-30
9.14085e-30
9.14078e-30
9.1407e-30
9.1406e-30
9.14051e-30
9.1404e-30
9.14029e-30
9.14018e-30
9.14006e-30
9.13994e-30
9.13983e-30
9.1406e-30
9.1406e-30
9.14059e-30
9.14058e-30
9.14056e-30
9.14055e-30
9.14052e-30
9.14049e-30
9.14046e-30
9.14042e-30
9.14038e-30
9.14033e-30
9.14027e-30
9.14021e-30
9.14015e-30
9.14008e-30
9.14001e-30
9.13994e-30
9.13988e-30
9.13981e-30
9.14027e-30
9.14027e-30
9.14026e-30
9.14025e-30
9.14025e-30
9.14023e-30
9.14022e-30
9.1402e-30
9.14018e-30
9.14016e-30
9.14013e-30
9.1401e-30
9.14007e-30
9.14004e-30
9.14e-30
9.13996e-30
9.13992e-30
9.13988e-30
9.13983e-30
9.13979e-30
9.14007e-30
9.14007e-30
9.14006e-30
9.14006e-30
9.14005e-30
9.14005e-30
9.14004e-30
9.14003e-30
9.14002e-30
9.14e-30
9.13999e-30
9.13997e-30
9.13995e-30
9.13993e-30
9.13991e-30
9.13988e-30
9.13986e-30
9.13983e-30
9.13981e-30
9.13979e-30
9.13995e-30
9.13994e-30
9.13994e-30
9.13994e-30
9.13994e-30
9.13993e-30
9.13993e-30
9.13992e-30
9.13992e-30
9.13991e-30
9.1399e-30
9.13989e-30
9.13988e-30
9.13986e-30
9.13985e-30
9.13984e-30
9.13982e-30
9.13981e-30
9.13979e-30
9.13978e-30
9.13987e-30
9.13987e-30
9.13987e-30
9.13987e-30
9.13987e-30
9.13987e-30
9.13986e-30
9.13986e-30
9.13986e-30
9.13985e-30
9.13985e-30
9.13984e-30
9.13983e-30
9.13983e-30
9.13982e-30
9.13981e-30
9.1398e-30
9.13979e-30
9.13979e-30
9.13978e-30
9.13983e-30
9.13983e-30
9.13983e-30
9.13983e-30
9.13983e-30
9.13983e-30
9.13983e-30
9.13982e-30
9.13982e-30
9.13982e-30
9.13982e-30
9.13981e-30
9.13981e-30
9.1398e-30
9.1398e-30
9.1398e-30
9.13979e-30
9.13979e-30
9.13978e-30
9.13978e-30
9.13981e-30
9.13981e-30
9.13981e-30
9.13981e-30
9.13981e-30
9.13981e-30
9.1398e-30
9.1398e-30
9.1398e-30
9.1398e-30
9.1398e-30
9.1398e-30
9.13979e-30
9.13979e-30
9.13979e-30
9.13979e-30
9.13978e-30
9.13978e-30
9.13978e-30
9.13978e-30
9.13979e-30
9.13979e-30
9.13979e-30
9.13979e-30
9.13979e-30
9.13979e-30
9.13979e-30
9.13979e-30
9.13979e-30
9.13979e-30
9.13979e-30
9.13979e-30
9.13979e-30
9.13978e-30
9.13978e-30
9.13978e-30
9.13978e-30
9.13978e-30
9.13978e-30
9.13977e-30
9.13979e-30
9.13979e-30
9.13979e-30
9.13979e-30
9.13979e-30
9.13979e-30
9.13979e-30
9.13978e-30
9.13978e-30
9.13978e-30
9.13978e-30
9.13978e-30
9.13978e-30
9.13978e-30
9.13978e-30
9.13978e-30
9.13978e-30
9.13978e-30
9.13978e-30
9.13977e-30
9.13978e-30
9.13978e-30
9.13978e-30
9.13978e-30
9.13978e-30
9.13978e-30
9.13978e-30
9.13978e-30
9.13978e-30
9.13978e-30
9.13978e-30
9.13978e-30
9.13978e-30
9.13978e-30
9.13978e-30
9.13978e-30
9.13978e-30
9.13978e-30
9.13978e-30
9.13977e-30
)
;

boundaryField
{
    topWall
    {
        type            zeroGradient;
    }
    bottomWall
    {
        type            zeroGradient;
    }
    sideWallL
    {
        type            symmetry;
    }
    sideWallR
    {
        type            zeroGradient;
    }
    frontAndBack
    {
        type            empty;
    }
}


// ************************************************************************* //
