/*--------------------------------*- C++ -*----------------------------------*\
  =========                 |
  \\      /  F ield         | OpenFOAM: The Open Source CFD Toolbox
   \\    /   O peration     | Website:  https://openfoam.org
    \\  /    A nd           | Version:  7
     \\/     M anipulation  |
\*---------------------------------------------------------------------------*/
FoamFile
{
    version     2.0;
    format      ascii;
    class       volScalarField;
    location    "17";
    object      T;
}
// * * * * * * * * * * * * * * * * * * * * * * * * * * * * * * * * * * * * * //

dimensions      [0 0 0 1 0 0 0];

internalField   nonuniform List<scalar> 
900
(
427.442
427.437
427.427
427.411
427.387
427.352
427.303
427.233
427.135
426.995
426.794
426.504
426.075
425.427
424.408
422.718
419.666
413.39
397.982
352.006
400.887
400.873
400.845
400.799
400.73
400.63
400.489
400.29
400.01
399.614
399.049
398.238
397.053
395.289
392.593
388.33
381.284
369.039
346.752
305.868
378.316
378.295
378.25
378.178
378.07
377.914
377.695
377.387
376.956
376.352
375.499
374.288
372.551
370.028
366.309
360.734
352.235
339.15
319.185
290.409
359.222
359.194
359.137
359.043
358.904
358.706
358.426
358.037
357.496
356.745
355.699
354.238
352.186
349.291
345.183
339.335
331.026
319.367
303.562
283.703
343.153
343.121
343.054
342.946
342.786
342.557
342.238
341.797
341.191
340.358
339.215
337.648
335.497
332.548
328.515
323.036
315.689
306.082
294.069
280.143
329.708
329.674
329.602
329.485
329.313
329.069
328.73
328.267
327.636
326.78
325.625
324.068
321.981
319.198
315.517
310.713
304.568
296.948
287.933
277.984
318.53
318.495
318.421
318.301
318.126
317.879
317.539
317.078
316.458
315.627
314.522
313.061
311.144
308.652
305.452
301.415
296.442
290.518
283.779
276.568
309.298
309.263
309.19
309.073
308.902
308.663
308.337
307.898
307.314
306.542
305.531
304.217
302.526
300.379
297.691
294.395
290.456
285.905
280.869
275.592
301.728
301.695
301.626
301.515
301.354
301.131
300.829
300.426
299.895
299.203
298.309
297.166
295.722
293.924
291.724
289.088
286.014
282.545
278.784
274.899
295.566
295.536
295.472
295.371
295.224
295.022
294.751
294.392
293.924
293.322
292.553
291.586
290.384
288.913
287.147
285.073
282.701
280.072
277.266
274.397
290.59
290.563
290.506
290.416
290.286
290.108
289.87
289.559
289.158
288.646
288.002
287.201
286.221
285.041
283.646
282.035
280.221
278.24
276.15
274.03
286.604
286.58
286.53
286.452
286.339
286.186
285.983
285.72
285.383
284.958
284.429
283.779
282.994
282.062
280.975
279.737
278.361
276.876
275.324
273.759
283.437
283.416
283.374
283.307
283.212
283.083
282.913
282.695
282.418
282.071
281.645
281.127
280.508
279.782
278.945
278.003
276.967
275.86
274.711
273.558
280.942
280.925
280.889
280.834
280.755
280.648
280.509
280.331
280.107
279.83
279.492
279.085
278.604
278.045
277.408
276.697
275.923
275.102
274.256
273.409
278.993
278.979
278.95
278.905
278.84
278.754
278.642
278.5
278.322
278.103
277.839
277.524
277.155
276.729
276.249
275.718
275.144
274.539
273.918
273.299
277.485
277.474
277.45
277.414
277.362
277.293
277.205
277.092
276.953
276.784
276.58
276.339
276.059
275.739
275.38
274.987
274.564
274.121
273.668
273.217
276.328
276.319
276.3
276.271
276.231
276.177
276.108
276.021
275.913
275.783
275.628
275.446
275.236
274.998
274.733
274.443
274.134
273.811
273.483
273.157
275.448
275.441
275.427
275.404
275.373
275.331
275.278
275.211
275.13
275.031
274.915
274.779
274.623
274.447
274.253
274.042
273.817
273.584
273.347
273.113
274.785
274.78
274.769
274.752
274.727
274.696
274.655
274.605
274.544
274.47
274.384
274.284
274.169
274.041
273.899
273.747
273.585
273.418
273.248
273.081
274.291
274.287
274.278
274.265
274.247
274.223
274.193
274.155
274.11
274.056
273.992
273.919
273.836
273.743
273.641
273.531
273.416
273.297
273.176
273.057
273.925
273.922
273.915
273.906
273.892
273.875
273.852
273.825
273.791
273.752
273.706
273.653
273.593
273.526
273.453
273.375
273.294
273.209
273.124
273.04
273.657
273.655
273.65
273.643
273.633
273.62
273.604
273.584
273.559
273.531
273.498
273.46
273.417
273.37
273.318
273.263
273.206
273.146
273.087
273.028
273.462
273.461
273.457
273.452
273.445
273.436
273.424
273.409
273.392
273.372
273.348
273.321
273.291
273.258
273.222
273.183
273.143
273.102
273.06
273.02
273.323
273.321
273.319
273.315
273.31
273.303
273.295
273.285
273.272
273.258
273.241
273.222
273.201
273.178
273.153
273.126
273.099
273.07
273.042
273.014
273.223
273.222
273.22
273.218
273.214
273.209
273.203
273.196
273.188
273.178
273.166
273.153
273.138
273.122
273.105
273.087
273.068
273.048
273.028
273.009
273.153
273.152
273.151
273.149
273.147
273.143
273.139
273.134
273.128
273.121
273.113
273.104
273.094
273.083
273.071
273.059
273.046
273.033
273.019
273.006
273.104
273.103
273.102
273.101
273.099
273.097
273.094
273.091
273.087
273.082
273.076
273.07
273.063
273.056
273.048
273.04
273.031
273.022
273.013
273.004
273.07
273.07
273.069
273.068
273.067
273.065
273.063
273.061
273.058
273.055
273.051
273.047
273.042
273.037
273.032
273.026
273.021
273.015
273.009
273.003
273.047
273.046
273.046
273.045
273.045
273.043
273.042
273.041
273.039
273.036
273.034
273.031
273.028
273.025
273.021
273.018
273.014
273.01
273.006
273.002
273.031
273.031
273.03
273.03
273.029
273.029
273.028
273.027
273.025
273.024
273.022
273.021
273.019
273.016
273.014
273.011
273.009
273.006
273.004
273.001
273.02
273.02
273.02
273.02
273.019
273.019
273.018
273.017
273.017
273.016
273.015
273.013
273.012
273.011
273.009
273.007
273.006
273.004
273.002
273.001
273.013
273.013
273.013
273.013
273.012
273.012
273.012
273.011
273.011
273.01
273.009
273.009
273.008
273.007
273.006
273.005
273.004
273.003
273.002
273.001
273.008
273.008
273.008
273.008
273.008
273.008
273.008
273.007
273.007
273.007
273.006
273.006
273.005
273.004
273.004
273.003
273.002
273.002
273.001
273
273.005
273.005
273.005
273.005
273.005
273.005
273.005
273.005
273.004
273.004
273.004
273.004
273.003
273.003
273.002
273.002
273.002
273.001
273.001
273
273.003
273.003
273.003
273.003
273.003
273.003
273.003
273.003
273.003
273.003
273.002
273.002
273.002
273.002
273.001
273.001
273.001
273.001
273
273
273.002
273.002
273.002
273.002
273.002
273.002
273.002
273.002
273.002
273.002
273.002
273.001
273.001
273.001
273.001
273.001
273.001
273
273
273
273.001
273.001
273.001
273.001
273.001
273.001
273.001
273.001
273.001
273.001
273.001
273.001
273.001
273.001
273.001
273
273
273
273
273
273.001
273.001
273.001
273.001
273.001
273.001
273.001
273.001
273.001
273.001
273.001
273.001
273
273
273
273
273
273
273
273
273
273
273
273
273
273
273
273
273
273
273
273
273
273
273
273
273
273
273
273
273
273
273
273
273
273
273
273
273
273
273
273
273
273
273
273
273
273
273
273
273
273
273
273
273
273
273
273
273
273
273
273
273
273
273
273
273
273
273
273
273
273
273
273
273
273
273
273
273
273
273
273
273
273
273
273
273
273
273
273
273
273
273
273
273
273
273
273
273
273
273
273
273
273
273
273
273
273
273
273
273
273
273
273
273
273
273
273
273
273
273
273
273
273
273
273
273
273
273
273
273
273
273
273
273
273
273
273
273
273
273
273
273
273
273
273
273
273
273
273
)
;

boundaryField
{
    topWall
    {
        type            zeroGradient;
    }
    bottomWall
    {
        type            codedFixedValue;
        value           uniform 443;
        name            heating;
        code            #{
            const scalar t = this->db().time().value();
            const scalar Ttemp = 273 + 10*t;
            operator==(Ttemp);
        #};
    }
    sideWallL
    {
        type            symmetry;
    }
    sideWallR
    {
        type            fixedValue;
        value           uniform 273;
    }
    frontAndBack
    {
        type            empty;
    }
}


// ************************************************************************* //
