/*--------------------------------*- C++ -*----------------------------------*\
  =========                 |
  \\      /  F ield         | OpenFOAM: The Open Source CFD Toolbox
   \\    /   O peration     | Website:  https://openfoam.org
    \\  /    A nd           | Version:  7
     \\/     M anipulation  |
\*---------------------------------------------------------------------------*/
FoamFile
{
    version     2.0;
    format      ascii;
    class       volScalarField;
    location    "11";
    object      gradTx;
}
// * * * * * * * * * * * * * * * * * * * * * * * * * * * * * * * * * * * * * //

dimensions      [0 -1 0 1 0 0 0];

internalField   nonuniform List<scalar> 
900
(
-2.51643
-8.00686
-14.9513
-24.6049
-38.7086
-59.8113
-91.7627
-140.503
-215.383
-331.478
-513.834
-805.789
-1286.56
-2112.25
-3623.23
-6665.85
-13692.5
-32979.4
-96087.9
-330139
-7.22436
-22.9772
-42.8703
-70.4655
-110.68
-170.673
-261.187
-398.654
-608.657
-931.82
-1434.23
-2226.76
-3502.61
-5614.17
-9238.16
-15742
-27989.7
-51903.9
-97841
-169552
-11.2489
-35.7492
-66.5968
-109.215
-171.026
-262.728
-400.164
-607.193
-920.225
-1395.56
-2121.62
-3239.73
-4980.11
-7724.53
-12112.6
-19205.8
-30663
-48592.6
-73732.1
-98312.9
-14.3184
-45.4536
-84.4904
-138.115
-215.37
-329.095
-497.979
-749.563
-1124.75
-1684.63
-2520.93
-3771.77
-5644.99
-8449.95
-12632.8
-18787.4
-27553
-39162.8
-52215.6
-61524.4
-16.2872
-51.6322
-95.7165
-155.847
-241.762
-367.039
-551.024
-821.494
-1218.4
-1799.05
-2645.17
-3871.84
-5637.59
-8151.54
-11666.7
-16432.8
-22554.9
-29680
-36484.7
-40298.2
-17.145
-54.2659
-100.288
-162.553
-250.68
-377.811
-562.217
-829.382
-1214.68
-1766.66
-2550.74
-3652.59
-5179.16
-7252.95
-9990.75
-13452
-17537.9
-21834.2
-25455.2
-27100.7
-17.0006
-53.716
-98.9373
-159.579
-244.531
-365.674
-539.095
-786.546
-1137.09
-1628.78
-2309.91
-3238.85
-4480.71
-6097.54
-8127.24
-10545.6
-13209.6
-15793.6
-17765.3
-18491.5
-16.0464
-50.6091
-92.8854
-149.05
-226.888
-336.563
-491.464
-709.112
-1012.01
-1428.19
-1991.02
-2737.41
-3703.18
-4913.81
-6368.62
-8017.53
-9733.54
-11292.9
-12388.3
-12705.2
-14.517
-45.7007
-83.5738
-133.408
-201.719
-296.81
-429.315
-612.689
-863.523
-1201.45
-1648.24
-2225.66
-2951.11
-3830.59
-4848.39
-5954.37
-7052.52
-7998.31
-8616.32
-8746.64
-12.6502
-39.7498
-72.4286
-115.015
-172.754
-252.168
-361.372
-510.297
-710.679
-975.673
-1318.8
-1751.94
-2281.98
-2906
-3605.13
-4338.24
-5038.17
-5614.42
-5966.96
-6012.4
-10.6572
-33.4258
-60.689
-95.8808
-143.081
-207.24
-294.347
-411.48
-566.656
-768.355
-1024.57
-1341.2
-1719.7
-2154.04
-2627.25
-3108.71
-3553.44
-3905.68
-4108.15
-4116.42
-8.70497
-27.254
-49.3123
-77.5218
-114.961
-165.277
-232.759
-322.304
-439.222
-588.791
-775.495
-1001.86
-1266.92
-1564.33
-1880.66
-2194.32
-2476.01
-2691.67
-2808.34
-2801.9
-6.91011
-21.5974
-38.9476
-60.9374
-89.8272
-128.234
-179.148
-245.872
-331.825
-440.185
-573.325
-732.013
-914.44
-1115.17
-1324.29
-1527.1
-1704.87
-1836.92
-1904.17
-1893.33
-5.34113
-16.6662
-29.9597
-46.6633
-68.3963
-96.9912
-134.486
-183.055
-244.845
-321.71
-414.808
-524.089
-647.695
-781.395
-918.194
-1048.36
-1160.06
-1240.81
-1279.48
-1268.71
-4.02635
-12.5441
-22.482
-34.867
-50.8332
-71.6361
-98.6354
-133.232
-176.744
-230.216
-294.149
-368.177
-450.717
-538.666
-627.253
-710.156
-779.993
-829.226
-851.376
-842.307
-2.96426
-9.22159
-16.4805
-25.4568
-36.928
-51.7374
-70.7743
-94.9244
-124.98
-161.507
-204.674
-254.052
-308.411
-365.574
-422.367
-474.75
-518.156
-548.057
-560.668
-553.658
-2.13382
-6.62899
-11.8157
-18.1825
-26.2523
-36.5809
-49.7398
-66.2788
-86.664
-111.19
-139.872
-172.324
-207.65
-244.368
-280.412
-313.234
-340.035
-358.104
-365.23
-360.097
-1.5034
-4.66447
-8.29339
-12.7174
-18.2816
-25.3458
-34.2714
-45.3939
-58.9822
-75.1816
-93.9471
-114.973
-137.632
-160.944
-183.586
-203.972
-220.4
-231.254
-235.246
-231.629
-1.03764
-3.21552
-5.70392
-8.71793
-12.4814
-17.2235
-23.169
-30.5196
-39.4272
-49.9584
-62.0539
-75.4882
-89.8374
-104.466
-118.541
-131.087
-141.076
-147.553
-149.767
-147.296
-0.702119
-2.17334
-3.84689
-5.86169
-8.36049
-11.487
-15.3789
-20.1557
-25.9014
-32.6431
-40.3266
-48.7937
-57.7655
-66.8377
-75.4942
-83.1414
-89.1646
-93.0005
-94.2145
-92.569
-0.466077
-1.44118
-2.54582
-3.86818
-5.49787
-7.52362
-10.0286
-13.0824
-16.7309
-20.9822
-25.7938
-31.0586
-36.5975
-42.158
-47.4242
-52.039
-55.638
-57.8916
-58.5493
-57.4775
-0.303699
-0.938171
-1.65416
-2.50676
-3.55131
-4.84181
-6.42777
-8.34934
-10.6307
-13.2725
-16.2434
-19.4735
-22.85
-26.2177
-29.3859
-32.1422
-34.2723
-35.5849
-35.9366
-35.2524
-0.194356
-0.599851
-1.05581
-1.59608
-2.25436
-3.06302
-4.05115
-5.24156
-6.6468
-8.26468
-10.0737
-12.0292
-14.0616
-16.0769
-17.9615
-19.5902
-20.8385
-21.5962
-21.7815
-21.3527
-0.122214
-0.376879
-0.66228
-0.99891
-1.40696
-1.90557
-2.51163
-3.2379
-4.09073
-5.06748
-6.15391
-7.3222
-8.53008
-9.72152
-10.8296
-11.7816
-12.5057
-12.9389
-13.035
-12.7711
-0.0755437
-0.232776
-0.408438
-0.614744
-0.863621
-1.16624
-1.53226
-1.96875
-2.47882
-3.06021
-3.70379
-4.39259
-5.10137
-5.79718
-6.44117
-6.99142
-7.40697
-7.65221
-7.70125
-7.54143
-0.0459186
-0.141388
-0.247739
-0.372144
-0.521549
-0.702385
-0.920108
-1.17858
-1.47928
-1.8205
-2.19659
-2.59736
-3.00799
-3.40938
-3.77921
-4.09365
-4.32956
-4.46698
-4.49154
-4.39632
-0.0274561
-0.0844829
-0.147838
-0.221673
-0.309976
-0.416397
-0.543983
-0.694813
-0.869566
-1.06707
-1.28388
-1.51401
-1.74889
-1.97757
-2.18742
-2.36504
-2.49748
-2.57369
-2.58574
-2.52989
-0.0161541
-0.0496753
-0.0868229
-0.129964
-0.181358
-0.243051
-0.31672
-0.403473
-0.503604
-0.616348
-0.739661
-0.87008
-1.00271
-1.13138
-1.24903
-1.34818
-1.4217
-1.46351
-1.46928
-1.43702
-0.00935502
-0.0287506
-0.0501941
-0.0750166
-0.10448
-0.139715
-0.181636
-0.230824
-0.287398
-0.350879
-0.420077
-0.493021
-0.566959
-0.638459
-0.703605
-0.758302
-0.798647
-0.821333
-0.824029
-0.805671
-0.00533377
-0.0163832
-0.0285726
-0.0426399
-0.0592802
-0.0791112
-0.102624
-0.13012
-0.161642
-0.196901
-0.235215
-0.275481
-0.316173
-0.355405
-0.39104
-0.420853
-0.442735
-0.45491
-0.45613
-0.445835
-0.00299472
-0.00919389
-0.0160186
-0.0238724
-0.0331331
-0.0441335
-0.0571343
-0.0722905
-0.0896129
-0.108932
-0.129864
-0.151802
-0.173911
-0.195167
-0.21442
-0.230474
-0.242204
-0.248664
-0.249195
-0.243505
-0.00165618
-0.0050821
-0.00884653
-0.013167
-0.0182462
-0.0242613
-0.0313488
-0.0395872
-0.0489767
-0.0594196
-0.0707052
-0.0825017
-0.0943602
-0.105733
-0.116006
-0.124546
-0.130759
-0.134148
-0.134368
-0.131268
-0.000902355
-0.00276771
-0.0048137
-0.00715605
-0.00990204
-0.0131446
-0.0169547
-0.0213714
-0.026392
-0.0319617
-0.037966
-0.0442271
-0.0505064
-0.0565143
-0.0619279
-0.0664159
-0.0696678
-0.0714252
-0.0715098
-0.0698445
-0.000484454
-0.0014853
-0.00258122
-0.00383295
-0.00529652
-0.00702013
-0.00904004
-0.0113756
-0.014024
-0.0169551
-0.0201078
-0.023388
-0.0266706
-0.0298045
-0.0326219
-0.0349515
-0.0366332
-0.037534
-0.0375628
-0.0366807
-0.000256337
-0.000785604
-0.00136424
-0.00202368
-0.00279282
-0.00369633
-0.00475254
-0.00597091
-0.0073493
-0.00887149
-0.0105052
-0.0122016
-0.0138957
-0.0155099
-0.016958
-0.0181524
-0.0190116
-0.019468
-0.0194755
-0.0190146
-0.000133701
-0.000409606
-0.000710801
-0.00105335
-0.00145195
-0.00191907
-0.00246388
-0.00309092
-0.0037988
-0.00457891
-0.00541454
-0.00628053
-0.00714378
-0.00796473
-0.00869979
-0.00930469
-0.00973835
-0.00996689
-0.00996722
-0.00972971
-6.87532e-05
-0.000210558
-0.000365146
-0.000540618
-0.000744355
-0.000982581
-0.00125982
-0.00157823
-0.00193697
-0.00233156
-0.00275345
-0.00318988
-0.00362417
-0.00403646
-0.00440495
-0.00470753
-0.00492378
-0.00503688
-0.00503541
-0.00491466
-3.48632e-05
-0.000106734
-0.000184978
-0.000273632
-0.000376351
-0.000496209
-0.000635406
-0.00079496
-0.000974384
-0.00117138
-0.00138164
-0.00159879
-0.00181452
-0.00201899
-0.00220142
-0.00235093
-0.00245746
-0.00251277
-0.00251128
-0.00245071
-1.7435e-05
-5.33599e-05
-9.24233e-05
-0.000136607
-0.0001877
-0.000247199
-0.000316164
-0.000395071
-0.000483643
-0.000580725
-0.000684179
-0.000790852
-0.000896668
-0.000996807
-0.00108601
-0.00115898
-0.00121083
-0.00123756
-0.00123649
-0.0012065
-8.59993e-06
-2.63148e-05
-4.55555e-05
-6.72829e-05
-9.23613e-05
-0.000121511
-0.000155236
-0.000193753
-0.000236915
-0.000284149
-0.000334407
-0.000386155
-0.000437413
-0.000485853
-0.000528938
-0.000564118
-0.000589051
-0.00060182
-0.000601141
-0.000586496
-4.18739e-06
-1.28088e-05
-2.21635e-05
-3.27116e-05
-4.4865e-05
-5.89657e-05
-7.52504e-05
-9.38192e-05
-0.000114593
-0.000137292
-0.000161411
-0.00018621
-0.000210742
-0.000233895
-0.00025446
-0.000271224
-0.000283073
-0.000289103
-0.000288707
-0.000281642
-2.01712e-06
-6.16776e-06
-1.0667e-05
-1.57314e-05
-2.15575e-05
-2.83083e-05
-3.60904e-05
-4.49476e-05
-5.4843e-05
-6.56408e-05
-7.70956e-05
-8.88602e-05
-0.000100484
-0.000111438
-0.000121157
-0.000129066
-0.000134644
-0.000137464
-0.000137243
-0.000133873
-9.70022e-07
-2.96682e-06
-5.12641e-06
-7.55604e-06
-1.03496e-05
-1.35773e-05
-1.7291e-05
-2.15096e-05
-2.62182e-05
-3.13509e-05
-3.67873e-05
-4.23625e-05
-4.78658e-05
-5.30449e-05
-5.76338e-05
-6.1363e-05
-6.39859e-05
-6.53037e-05
-6.51838e-05
-6.3578e-05
-4.86705e-07
-1.48722e-06
-2.57074e-06
-3.78776e-06
-5.18299e-06
-6.7932e-06
-8.64295e-06
-1.0738e-05
-1.30734e-05
-1.56191e-05
-1.83096e-05
-2.10655e-05
-2.37818e-05
-2.63356e-05
-2.85957e-05
-3.0428e-05
-3.17149e-05
-3.23575e-05
-3.22894e-05
-3.14918e-05
-2.99341e-07
-9.12254e-07
-1.57684e-06
-2.32273e-06
-3.17349e-06
-4.15808e-06
-5.28616e-06
-6.55942e-06
-7.97854e-06
-9.52268e-06
-1.11534e-05
-1.28236e-05
-1.44675e-05
-1.60108e-05
-1.73742e-05
-1.84775e-05
-1.92522e-05
-1.96378e-05
-1.95919e-05
-1.91065e-05
)
;

boundaryField
{
    topWall
    {
        type            calculated;
        value           nonuniform List<scalar> 
20
(
-2.99341e-07
-9.12254e-07
-1.57684e-06
-2.32273e-06
-3.17349e-06
-4.15808e-06
-5.28616e-06
-6.55942e-06
-7.97854e-06
-9.52268e-06
-1.11534e-05
-1.28236e-05
-1.44675e-05
-1.60108e-05
-1.73742e-05
-1.84775e-05
-1.92522e-05
-1.96378e-05
-1.95919e-05
-1.91065e-05
)
;
    }
    bottomWall
    {
        type            calculated;
        value           nonuniform List<scalar> 
20
(
-2.51643
-8.00686
-14.9513
-24.6049
-38.7086
-59.8113
-91.7627
-140.503
-215.383
-331.478
-513.834
-805.789
-1286.56
-2112.25
-3623.23
-6665.85
-13692.5
-32979.4
-96087.9
-330139
)
;
    }
    sideWallL
    {
        type            symmetry;
    }
    sideWallR
    {
        type            calculated;
        value           nonuniform List<scalar> 
45
(
-515398
-211193
-108615
-64278.1
-41034.5
-27248.7
-18464
-12633.1
-8672.81
-5949.96
-4067.77
-2765.71
-1867.24
-1250.34
-829.636
-545.068
-354.367
-227.866
-144.861
-91.0158
-56.5008
-34.6468
-20.9825
-12.5478
-7.40863
-4.31842
-2.48481
-1.41129
-0.791181
-0.437786
-0.239093
-0.128882
-0.0685716
-0.0360105
-0.0186664
-0.00955119
-0.00482432
-0.00240559
-0.00118426
-0.000575669
-0.000276436
-0.000131397
-6.24027e-05
-3.09109e-05
-1.87538e-05
)
;
    }
    frontAndBack
    {
        type            empty;
    }
}


// ************************************************************************* //
