/*--------------------------------*- C++ -*----------------------------------*\
  =========                 |
  \\      /  F ield         | OpenFOAM: The Open Source CFD Toolbox
   \\    /   O peration     | Website:  https://openfoam.org
    \\  /    A nd           | Version:  7
     \\/     M anipulation  |
\*---------------------------------------------------------------------------*/
FoamFile
{
    version     2.0;
    format      ascii;
    class       volScalarField;
    location    "11";
    object      gradTy;
}
// * * * * * * * * * * * * * * * * * * * * * * * * * * * * * * * * * * * * * //

dimensions      [0 -1 0 1 0 0 0];

internalField   nonuniform List<scalar> 
900
(
-111749
-111758
-111780
-111816
-111875
-111965
-112105
-112318
-112644
-113142
-113908
-115091
-116940
-119880
-124666
-132741
-147074
-174423
-231958
-368352
-92084.5
-92093.2
-92112.2
-92144.9
-92196.8
-92277.2
-92399.8
-92585.6
-92866.4
-93290.4
-93930.5
-94898.2
-96364.5
-98591.8
-101977
-107081
-114517
-124052
-130130
-101696
-75261
-75268.1
-75283.5
-75309.7
-75351.1
-75414.4
-75509.5
-75651.2
-75860.4
-76167.3
-76613.3
-77254
-78158.3
-79396.4
-80994.1
-82790.9
-84039.5
-82354.3
-71298.4
-36728.9
-60961.4
-60966.5
-60977.3
-60995.6
-61024
-61066.3
-61128.3
-61217.2
-61342.6
-61515.4
-61746.1
-62038.9
-62378.2
-62696.4
-62805.2
-62250.5
-60032.1
-54142.4
-41119.6
-16895.1
-48902.8
-48905.6
-48911.6
-48921.4
-48936
-48956.7
-48984.7
-49020.9
-49064.6
-49110.9
-49146.6
-49140.7
-49027.4
-48674.8
-47830.4
-46032.8
-42495
-36017.7
-25166.4
-9257.35
-38825.5
-38826.2
-38827.5
-38829.4
-38831.3
-38832.2
-38829.9
-38820.2
-38795
-38738.9
-38624.7
-38403.7
-37991.7
-37246.8
-35937.7
-33707.3
-30050.6
-24362.1
-16164.2
-5642.61
-30488.7
-30487.6
-30485.1
-30480.2
-30471.6
-30456.4
-30430.3
-30385.7
-30310.1
-30183
-29971.6
-29623.3
-29056.4
-28147.3
-26717.3
-24525.2
-21282.8
-16720.9
-10741.6
-3653.91
-23668
-23665.5
-23660
-23650.1
-23633.8
-23607.3
-23564.9
-23497.5
-23391.1
-23224
-22963.7
-22562.3
-21950.6
-21032.7
-19683.6
-17753.9
-15092.3
-11596.7
-7297.03
-2447.8
-18153.8
-18150.4
-18142.9
-18129.9
-18108.9
-18075.8
-18024.5
-17945.7
-17825.6
-17644.3
-17373.1
-16972.1
-16387.7
-15550.9
-14379.9
-12787.4
-10700.6
-8092.07
-5022.04
-1670.77
-13751.9
-13748.1
-13739.7
-13725.2
-13702.1
-13666.6
-13612.6
-13531.6
-13411.4
-13234.7
-12978.3
-12611
-12093.8
-11379.6
-10417.3
-9158.51
-7571.6
-5659.43
-3478.96
-1151.26
-10284.6
-10280.7
-10272.1
-10257.6
-10234.6
-10199.8
-10147.7
-10071.1
-9959.74
-9799.69
-9572.86
-9256.38
-8822.78
-8241.31
-7481.1
-6516.85
-5337.19
-3954.69
-2414.44
-796.064
-7590.93
-7587.18
-7579.1
-7565.44
-7544.16
-7512.19
-7465.15
-7396.99
-7299.55
-7162.16
-6971.38
-6710.92
-6362.19
-5905.65
-5323.32
-4602.69
-3741.71
-2754.11
-1672.96
-550.132
-5527.95
-5524.58
-5517.36
-5505.23
-5486.5
-5458.67
-5418.22
-5360.4
-5278.97
-5166.02
-5011.89
-4805.33
-4534.11
-4186.11
-3751.18
-3223.64
-2605.21
-1907.7
-1154.35
-378.841
-3970.94
-3968.05
-3961.88
-3951.59
-3935.81
-3912.59
-3879.22
-3832.08
-3766.58
-3677
-3556.61
-3397.82
-3192.77
-2934.1
-2616.26
-2237.07
-1799.32
-1312.19
-791.625
-259.402
-2813.18
-2810.81
-2805.74
-2797.33
-2784.53
-2765.86
-2739.28
-2702.15
-2651.15
-2582.28
-2490.95
-2372.15
-2220.91
-2032.86
-1805.09
-1537.04
-1231.48
-895.132
-538.732
-176.319
-1965.22
-1963.33
-1959.31
-1952.66
-1942.62
-1928.08
-1907.57
-1879.19
-1840.61
-1789.11
-1721.59
-1634.83
-1525.74
-1391.76
-1231.44
-1044.92
-834.515
-604.963
-363.394
-118.817
-1353.56
-1352.1
-1349.01
-1343.91
-1336.27
-1325.27
-1309.87
-1288.77
-1260.34
-1222.77
-1174.02
-1112.04
-1034.94
-941.262
-830.31
-702.48
-559.531
-404.723
-242.728
-79.3004
-919.088
-917.992
-915.674
-911.88
-906.21
-898.109
-886.853
-871.538
-851.093
-824.302
-789.862
-746.483
-693.026
-628.671
-553.123
-466.8
-370.975
-267.84
-160.424
-52.3766
-615.199
-614.398
-612.708
-609.951
-605.852
-600.03
-591.994
-581.138
-566.755
-548.057
-524.217
-494.437
-458.038
-414.57
-363.932
-306.479
-243.101
-175.244
-104.848
-34.2126
-405.912
-405.34
-404.138
-402.182
-399.288
-395.199
-389.588
-382.058
-372.151
-359.362
-343.174
-323.102
-298.745
-269.862
-236.437
-198.745
-157.39
-113.307
-67.7284
-22.09
-263.992
-263.593
-262.757
-261.401
-259.402
-256.591
-252.756
-247.64
-240.95
-232.37
-221.579
-208.286
-192.259
-173.371
-151.639
-127.263
-100.64
-72.3702
-43.2244
-14.0922
-169.232
-168.961
-168.391
-167.471
-166.119
-164.227
-161.658
-158.25
-153.818
-148.166
-141.1
-132.446
-122.071
-109.91
-95.9895
-80.447
-63.5406
-45.6474
-27.2452
-8.87959
-106.932
-106.751
-106.371
-105.759
-104.863
-103.615
-101.927
-99.6985
-96.8155
-93.1585
-88.6106
-83.0691
-76.4593
-68.7492
-59.9631
-50.1929
-39.6026
-28.4263
-16.9565
-5.52475
-66.5994
-66.4806
-66.2323
-65.8332
-65.251
-64.4425
-63.3542
-61.9236
-60.0814
-57.7556
-54.8769
-51.3857
-47.2403
-42.4255
-36.9606
-30.9052
-24.3618
-17.4737
-10.4179
-3.39346
-40.886
-40.8097
-40.6505
-40.3952
-40.0238
-39.5098
-38.8206
-37.9182
-36.7612
-35.3068
-33.5143
-31.3495
-28.7894
-25.8274
-22.4773
-18.777
-14.7893
-10.6008
-6.3174
-2.05734
-24.742
-24.6939
-24.5937
-24.4333
-24.2006
-23.8796
-23.4508
-22.8913
-22.1768
-21.2821
-20.1837
-18.8622
-17.3051
-15.5097
-13.4855
-11.256
-8.8591
-6.34647
-3.78058
-1.23096
-14.7592
-14.7295
-14.6675
-14.5686
-14.4253
-14.2284
-13.966
-13.625
-13.1909
-12.6493
-11.9867
-11.1924
-10.2595
-9.18709
-7.98147
-6.6569
-5.236
-3.74904
-2.23252
-0.726783
-8.67925
-8.66115
-8.62352
-8.56351
-8.47686
-8.35801
-8.20018
-7.99566
-7.73619
-7.4135
-7.02
-6.54969
-5.99901
-5.36777
-4.6599
-3.88395
-3.05316
-2.18511
-1.30081
-0.423406
-5.03166
-5.02084
-4.99837
-4.96259
-4.91105
-4.84052
-4.74711
-4.62642
-4.47376
-4.28446
-4.05431
-3.78001
-3.45971
-3.09348
-2.68373
-2.23549
-1.75641
-1.25653
-0.747809
-0.243376
-2.87592
-2.86955
-2.85636
-2.83538
-2.80521
-2.76403
-2.70963
-2.63953
-2.5511
-2.44175
-2.30915
-2.15153
-1.96793
-1.75849
-1.52464
-1.2693
-0.996814
-0.712857
-0.424144
-0.138022
-1.6207
-1.61702
-1.6094
-1.5973
-1.57992
-1.55626
-1.52507
-1.48499
-1.43454
-1.37232
-1.29706
-1.20781
-1.10408
-0.985998
-0.85441
-0.710964
-0.558103
-0.398988
-0.237341
-0.0772258
-0.900574
-0.898482
-0.894148
-0.887277
-0.877432
-0.864046
-0.846443
-0.823866
-0.795524
-0.760646
-0.718554
-0.668747
-0.610979
-0.545343
-0.472326
-0.392851
-0.308268
-0.220315
-0.13103
-0.0426304
-0.493468
-0.492296
-0.489871
-0.486031
-0.480537
-0.473081
-0.463296
-0.450773
-0.435085
-0.41582
-0.39262
-0.365223
-0.333506
-0.297533
-0.257578
-0.214149
-0.167983
-0.120023
-0.0713693
-0.0232179
-0.266658
-0.266012
-0.264675
-0.262562
-0.259543
-0.255453
-0.250095
-0.243251
-0.234694
-0.224208
-0.211604
-0.196747
-0.179579
-0.160137
-0.138574
-0.115167
-0.0903108
-0.0645106
-0.0383536
-0.0124763
-0.142115
-0.141764
-0.141039
-0.139893
-0.138259
-0.136049
-0.133158
-0.129473
-0.124874
-0.119247
-0.112497
-0.104554
-0.0953899
-0.0850274
-0.0735501
-0.0611053
-0.0479033
-0.0342105
-0.0203361
-0.00661483
-0.074705
-0.0745175
-0.07413
-0.0735184
-0.0726469
-0.0714699
-0.0699332
-0.0679772
-0.0655405
-0.0625648
-0.0590006
-0.0548131
-0.0499889
-0.0445415
-0.0385155
-0.0319884
-0.0250706
-0.0179006
-0.0106394
-0.00346053
-0.0387369
-0.038638
-0.038434
-0.0381122
-0.0376543
-0.0370366
-0.0362314
-0.0352082
-0.0339355
-0.0323837
-0.0305279
-0.0283509
-0.0258462
-0.0230216
-0.0199005
-0.0165232
-0.0129467
-0.00924234
-0.00549259
-0.0017864
-0.0198153
-0.019764
-0.0196581
-0.0194912
-0.0192541
-0.0189346
-0.0185187
-0.0179909
-0.0173355
-0.0165376
-0.0155847
-0.0144683
-0.0131857
-0.0117408
-0.010146
-0.00842189
-0.00659746
-0.00470894
-0.00279814
-0.000910016
-0.0100002
-0.00997391
-0.00991975
-0.00983448
-0.0097134
-0.00955049
-0.00933871
-0.00907032
-0.0087375
-0.00833286
-0.00785027
-0.00728562
-0.00663763
-0.00590851
-0.00510449
-0.00423603
-0.00331769
-0.00236762
-0.00140674
-0.000457481
-0.00497904
-0.00496579
-0.00493849
-0.00489553
-0.0048346
-0.0047527
-0.00464636
-0.00451179
-0.00434511
-0.00414273
-0.00390168
-0.00361997
-0.00329703
-0.00293404
-0.00253412
-0.00210249
-0.00164637
-0.00117473
-0.000697907
-0.000226956
-0.00244489
-0.0024383
-0.00242474
-0.00240341
-0.00237319
-0.00233261
-0.00227999
-0.00221347
-0.00213118
-0.00203139
-0.00191267
-0.00177408
-0.00161538
-0.00143715
-0.00124096
-0.00102937
-0.000805912
-0.000574966
-0.000341555
-0.000111068
-0.00118155
-0.00117833
-0.00117171
-0.0011613
-0.00114655
-0.00112678
-0.00110116
-0.00106882
-0.00102885
-0.000980445
-0.000922914
-0.000855822
-0.000779065
-0.000692945
-0.000598215
-0.000496119
-0.000388354
-0.000277031
-0.000164556
-5.35084e-05
-0.000556272
-0.000554742
-0.000551592
-0.000546645
-0.000539648
-0.000530271
-0.000518133
-0.000502824
-0.000483923
-0.000461054
-0.000433901
-0.000402267
-0.000366107
-0.000325566
-0.000281004
-0.000233004
-0.000182366
-0.000130075
-7.72596e-05
-2.51215e-05
-0.00024217
-0.000241499
-0.000240116
-0.000237949
-0.000234882
-0.000230773
-0.000225462
-0.000218769
-0.000210513
-0.000200529
-0.000188684
-0.000174895
-0.000159145
-0.000141497
-0.000122111
-0.000101237
-7.92257e-05
-5.65037e-05
-3.35594e-05
-1.09122e-05
-6.75336e-05
-6.73462e-05
-6.69583e-05
-6.63525e-05
-6.54929e-05
-6.43432e-05
-6.28583e-05
-6.09859e-05
-5.86801e-05
-5.5891e-05
-5.25833e-05
-4.87349e-05
-4.43417e-05
-3.94204e-05
-3.40168e-05
-2.81991e-05
-2.20661e-05
-1.57365e-05
-9.34599e-06
-3.03949e-06
)
;

boundaryField
{
    topWall
    {
        type            calculated;
        value           uniform 0;
    }
    bottomWall
    {
        type            calculated;
        value           nonuniform List<scalar> 
20
(
-122333
-122343
-122365
-122403
-122463
-122558
-122702
-122925
-123265
-123786
-124590
-125841
-127814
-130988
-136263
-145481
-162926
-200250
-294844
-584602
)
;
    }
    sideWallL
    {
        type            symmetry;
    }
    sideWallR
    {
        type            calculated;
        value           nonuniform List<scalar> 
45
(
-368352
-101696
-36728.9
-16895.1
-9257.35
-5642.61
-3653.91
-2447.8
-1670.77
-1151.26
-796.064
-550.132
-378.841
-259.402
-176.319
-118.817
-79.3004
-52.3766
-34.2126
-22.09
-14.0922
-8.87959
-5.52475
-3.39346
-2.05734
-1.23096
-0.726783
-0.423406
-0.243376
-0.138022
-0.0772258
-0.0426304
-0.0232179
-0.0124763
-0.00661483
-0.00346053
-0.0017864
-0.000910016
-0.000457481
-0.000226956
-0.000111068
-5.35084e-05
-2.51215e-05
-1.09122e-05
-3.03949e-06
)
;
    }
    frontAndBack
    {
        type            empty;
    }
}


// ************************************************************************* //
