/*--------------------------------*- C++ -*----------------------------------*\
  =========                 |
  \\      /  F ield         | OpenFOAM: The Open Source CFD Toolbox
   \\    /   O peration     | Website:  https://openfoam.org
    \\  /    A nd           | Version:  7
     \\/     M anipulation  |
\*---------------------------------------------------------------------------*/
FoamFile
{
    version     2.0;
    format      ascii;
    class       volScalarField;
    location    "11";
    object      rhoc;
}
// * * * * * * * * * * * * * * * * * * * * * * * * * * * * * * * * * * * * * //

dimensions      [1 -3 0 0 0 0 0];

internalField   nonuniform List<scalar> 
900
(
1.66221e-19
1.66192e-19
1.66129e-19
1.66019e-19
1.65841e-19
1.6556e-19
1.65121e-19
1.64439e-19
1.63382e-19
1.61747e-19
1.59216e-19
1.55299e-19
1.49228e-19
1.39817e-19
1.25273e-19
1.03096e-19
7.08641e-20
3.12267e-20
3.61663e-21
2.58922e-24
1.36803e-21
1.36729e-21
1.36565e-21
1.36281e-21
1.35821e-21
1.35097e-21
1.33974e-21
1.32246e-21
1.29608e-21
1.25612e-21
1.19624e-21
1.10799e-21
9.81293e-22
8.07184e-22
5.85461e-22
3.39551e-22
1.29474e-22
2.13939e-23
6.08526e-25
4.91983e-28
1.85347e-23
1.85179e-23
1.84809e-23
1.84168e-23
1.83134e-23
1.81518e-23
1.7903e-23
1.75247e-23
1.69561e-23
1.61148e-23
1.48966e-23
1.31891e-23
1.09119e-23
8.10483e-24
5.05685e-24
2.36862e-24
6.87372e-25
8.96335e-26
3.2909e-27
2.87889e-29
4.35836e-25
4.3531e-25
4.34158e-25
4.32164e-25
4.28964e-25
4.2399e-25
4.16398e-25
4.04981e-25
3.88095e-25
3.63647e-25
3.29302e-25
2.83119e-25
2.24929e-25
1.58439e-25
9.29117e-26
4.12743e-26
1.21362e-26
1.99818e-27
1.65563e-28
9.52558e-30
1.83049e-26
1.82795e-26
1.8224e-26
1.81282e-26
1.79751e-26
1.77385e-26
1.73801e-26
1.68467e-26
1.6068e-26
1.49601e-26
1.34376e-26
1.14464e-26
9.0197e-27
6.34688e-27
3.79866e-27
1.81537e-27
6.45134e-28
1.62206e-28
3.04517e-29
5.66309e-30
1.38436e-27
1.3824e-27
1.37812e-27
1.37075e-27
1.35903e-27
1.34099e-27
1.31386e-27
1.2738e-27
1.21589e-27
1.13442e-27
1.02388e-27
8.81172e-28
7.09067e-28
5.19981e-28
3.36777e-28
1.86295e-28
8.58578e-29
3.32149e-29
1.16244e-29
4.28835e-30
1.86754e-28
1.86512e-28
1.85987e-28
1.85084e-28
1.83652e-28
1.81459e-28
1.78176e-28
1.73357e-28
1.66432e-28
1.56746e-28
1.43662e-28
1.26782e-28
1.06288e-28
8.33042e-29
6.00166e-29
3.92089e-29
2.31669e-29
1.26207e-29
6.65809e-30
3.65227e-30
4.33617e-29
4.33159e-29
4.32162e-29
4.30455e-29
4.27755e-29
4.23636e-29
4.17493e-29
4.0851e-29
3.95648e-29
3.77694e-29
3.53416e-29
3.21893e-29
2.83019e-29
2.3808e-29
1.90089e-29
1.4342e-29
1.02567e-29
7.05217e-30
4.78591e-30
3.31471e-30
1.60196e-29
1.60069e-29
1.59794e-29
1.59324e-29
1.58583e-29
1.57457e-29
1.55784e-29
1.53345e-29
1.49862e-29
1.45002e-29
1.38414e-29
1.29791e-29
1.18981e-29
1.06124e-29
9.17515e-30
7.67925e-30
6.23987e-30
4.9635e-30
3.91811e-30
3.12114e-30
8.40657e-30
8.40187e-30
8.39166e-30
8.37427e-30
8.34693e-30
8.30553e-30
8.24426e-30
8.15529e-30
8.0286e-30
7.85209e-30
7.61247e-30
7.29705e-30
6.89688e-30
6.41079e-30
5.84937e-30
5.23681e-30
4.6088e-30
4.00564e-30
3.46315e-30
3.00498e-30
5.59776e-30
5.59559e-30
5.59088e-30
5.5829e-30
5.57039e-30
5.55152e-30
5.52374e-30
5.48359e-30
5.42665e-30
5.34755e-30
5.24029e-30
5.09881e-30
4.91815e-30
4.69593e-30
4.43401e-30
4.13967e-30
3.82564e-30
3.50859e-30
3.20611e-30
2.93341e-30
4.33862e-30
4.33746e-30
4.33495e-30
4.3307e-30
4.32408e-30
4.31414e-30
4.29958e-30
4.27866e-30
4.24915e-30
4.20835e-30
4.1532e-30
4.08056e-30
3.98764e-30
3.8727e-30
3.73574e-30
3.57921e-30
3.40823e-30
3.23027e-30
3.05417e-30
2.88864e-30
3.69665e-30
3.69597e-30
3.6945e-30
3.69201e-30
3.68816e-30
3.68241e-30
3.67404e-30
3.66208e-30
3.64532e-30
3.62229e-30
3.59132e-30
3.55067e-30
3.49878e-30
3.43452e-30
3.35763e-30
3.26901e-30
3.17093e-30
3.06704e-30
2.9619e-30
2.86044e-30
3.34116e-30
3.34073e-30
3.33982e-30
3.33828e-30
3.33591e-30
3.33238e-30
3.32729e-30
3.32006e-30
3.30999e-30
3.29625e-30
3.27789e-30
3.25393e-30
3.22346e-30
3.18581e-30
3.14076e-30
3.08867e-30
3.03068e-30
2.96864e-30
2.90503e-30
2.84263e-30
3.13391e-30
3.13363e-30
3.13304e-30
3.13206e-30
3.13055e-30
3.12832e-30
3.12511e-30
3.12059e-30
3.11435e-30
3.1059e-30
3.09467e-30
3.08012e-30
3.06171e-30
3.03906e-30
3.01201e-30
2.98077e-30
2.9459e-30
2.90844e-30
2.86975e-30
2.83141e-30
3.00931e-30
3.00913e-30
3.00875e-30
3.00811e-30
3.00713e-30
3.00569e-30
3.00365e-30
3.00078e-30
2.99685e-30
2.99156e-30
2.98459e-30
2.97562e-30
2.96434e-30
2.95053e-30
2.93411e-30
2.91518e-30
2.89408e-30
2.87137e-30
2.84783e-30
2.82437e-30
2.93316e-30
2.93304e-30
2.93279e-30
2.93237e-30
2.93173e-30
2.93081e-30
2.92949e-30
2.92766e-30
2.92517e-30
2.92185e-30
2.9175e-30
2.91194e-30
2.90499e-30
2.89654e-30
2.88653e-30
2.87504e-30
2.86226e-30
2.84851e-30
2.83424e-30
2.81998e-30
2.88628e-30
2.8862e-30
2.88604e-30
2.88576e-30
2.88535e-30
2.88475e-30
2.88391e-30
2.88275e-30
2.88118e-30
2.87909e-30
2.87638e-30
2.87294e-30
2.86867e-30
2.86351e-30
2.85742e-30
2.85047e-30
2.84275e-30
2.83447e-30
2.82587e-30
2.81727e-30
2.85741e-30
2.85736e-30
2.85725e-30
2.85707e-30
2.85681e-30
2.85643e-30
2.85589e-30
2.85516e-30
2.85417e-30
2.85287e-30
2.8512e-30
2.84908e-30
2.84647e-30
2.84333e-30
2.83966e-30
2.83547e-30
2.83084e-30
2.82588e-30
2.82074e-30
2.8156e-30
2.8397e-30
2.83966e-30
2.8396e-30
2.83948e-30
2.83932e-30
2.83907e-30
2.83874e-30
2.83828e-30
2.83767e-30
2.83686e-30
2.83584e-30
2.83455e-30
2.83296e-30
2.83107e-30
2.82887e-30
2.82637e-30
2.82362e-30
2.82068e-30
2.81763e-30
2.81459e-30
2.82891e-30
2.82889e-30
2.82884e-30
2.82877e-30
2.82867e-30
2.82852e-30
2.82831e-30
2.82802e-30
2.82765e-30
2.82716e-30
2.82654e-30
2.82576e-30
2.82481e-30
2.82368e-30
2.82237e-30
2.8209e-30
2.81928e-30
2.81755e-30
2.81576e-30
2.81398e-30
2.8224e-30
2.82238e-30
2.82236e-30
2.82231e-30
2.82225e-30
2.82215e-30
2.82203e-30
2.82185e-30
2.82163e-30
2.82133e-30
2.82096e-30
2.82049e-30
2.81993e-30
2.81927e-30
2.8185e-30
2.81764e-30
2.81669e-30
2.81569e-30
2.81465e-30
2.81361e-30
2.81851e-30
2.8185e-30
2.81848e-30
2.81845e-30
2.81841e-30
2.81836e-30
2.81828e-30
2.81818e-30
2.81804e-30
2.81787e-30
2.81765e-30
2.81737e-30
2.81704e-30
2.81666e-30
2.81621e-30
2.81571e-30
2.81517e-30
2.81459e-30
2.81399e-30
2.8134e-30
2.81621e-30
2.8162e-30
2.81619e-30
2.81618e-30
2.81615e-30
2.81612e-30
2.81607e-30
2.81601e-30
2.81593e-30
2.81583e-30
2.8157e-30
2.81554e-30
2.81535e-30
2.81513e-30
2.81487e-30
2.81459e-30
2.81428e-30
2.81395e-30
2.81361e-30
2.81328e-30
2.81487e-30
2.81487e-30
2.81486e-30
2.81485e-30
2.81484e-30
2.81482e-30
2.81479e-30
2.81475e-30
2.81471e-30
2.81465e-30
2.81457e-30
2.81448e-30
2.81437e-30
2.81425e-30
2.8141e-30
2.81394e-30
2.81377e-30
2.81358e-30
2.81339e-30
2.8132e-30
2.8141e-30
2.81409e-30
2.81409e-30
2.81408e-30
2.81408e-30
2.81407e-30
2.81405e-30
2.81403e-30
2.814e-30
2.81397e-30
2.81393e-30
2.81388e-30
2.81381e-30
2.81374e-30
2.81366e-30
2.81357e-30
2.81347e-30
2.81337e-30
2.81327e-30
2.81316e-30
2.81366e-30
2.81366e-30
2.81365e-30
2.81365e-30
2.81365e-30
2.81364e-30
2.81363e-30
2.81362e-30
2.8136e-30
2.81358e-30
2.81356e-30
2.81353e-30
2.8135e-30
2.81346e-30
2.81341e-30
2.81336e-30
2.81331e-30
2.81325e-30
2.8132e-30
2.81314e-30
2.81341e-30
2.81341e-30
2.81341e-30
2.81341e-30
2.8134e-30
2.8134e-30
2.81339e-30
2.81339e-30
2.81338e-30
2.81337e-30
2.81336e-30
2.81334e-30
2.81332e-30
2.8133e-30
2.81328e-30
2.81325e-30
2.81322e-30
2.81319e-30
2.81316e-30
2.81313e-30
2.81327e-30
2.81327e-30
2.81327e-30
2.81327e-30
2.81327e-30
2.81327e-30
2.81326e-30
2.81326e-30
2.81326e-30
2.81325e-30
2.81324e-30
2.81323e-30
2.81322e-30
2.81321e-30
2.8132e-30
2.81319e-30
2.81317e-30
2.81315e-30
2.81314e-30
2.81312e-30
2.8132e-30
2.8132e-30
2.8132e-30
2.8132e-30
2.8132e-30
2.81319e-30
2.81319e-30
2.81319e-30
2.81319e-30
2.81319e-30
2.81318e-30
2.81318e-30
2.81317e-30
2.81317e-30
2.81316e-30
2.81315e-30
2.81314e-30
2.81313e-30
2.81313e-30
2.81312e-30
2.81316e-30
2.81316e-30
2.81316e-30
2.81316e-30
2.81316e-30
2.81316e-30
2.81315e-30
2.81315e-30
2.81315e-30
2.81315e-30
2.81315e-30
2.81315e-30
2.81314e-30
2.81314e-30
2.81314e-30
2.81313e-30
2.81313e-30
2.81312e-30
2.81312e-30
2.81311e-30
2.81314e-30
2.81314e-30
2.81314e-30
2.81314e-30
2.81313e-30
2.81313e-30
2.81313e-30
2.81313e-30
2.81313e-30
2.81313e-30
2.81313e-30
2.81313e-30
2.81313e-30
2.81313e-30
2.81312e-30
2.81312e-30
2.81312e-30
2.81312e-30
2.81312e-30
2.81311e-30
2.81312e-30
2.81312e-30
2.81312e-30
2.81312e-30
2.81312e-30
2.81312e-30
2.81312e-30
2.81312e-30
2.81312e-30
2.81312e-30
2.81312e-30
2.81312e-30
2.81312e-30
2.81312e-30
2.81312e-30
2.81312e-30
2.81312e-30
2.81312e-30
2.81311e-30
2.81311e-30
2.81312e-30
2.81312e-30
2.81312e-30
2.81312e-30
2.81312e-30
2.81312e-30
2.81312e-30
2.81312e-30
2.81312e-30
2.81312e-30
2.81312e-30
2.81312e-30
2.81312e-30
2.81312e-30
2.81312e-30
2.81311e-30
2.81311e-30
2.81311e-30
2.81311e-30
2.81311e-30
2.81312e-30
2.81312e-30
2.81312e-30
2.81312e-30
2.81312e-30
2.81312e-30
2.81312e-30
2.81311e-30
2.81311e-30
2.81311e-30
2.81311e-30
2.81311e-30
2.81311e-30
2.81311e-30
2.81311e-30
2.81311e-30
2.81311e-30
2.81311e-30
2.81311e-30
2.81311e-30
2.81311e-30
2.81311e-30
2.81311e-30
2.81311e-30
2.81311e-30
2.81311e-30
2.81311e-30
2.81311e-30
2.81311e-30
2.81311e-30
2.81311e-30
2.81311e-30
2.81311e-30
2.81311e-30
2.81311e-30
2.81311e-30
2.81311e-30
2.81311e-30
2.81311e-30
2.81311e-30
2.81311e-30
2.81311e-30
2.81311e-30
2.81311e-30
2.81311e-30
2.81311e-30
2.81311e-30
2.81311e-30
2.81311e-30
2.81311e-30
2.81311e-30
2.81311e-30
2.81311e-30
2.81311e-30
2.81311e-30
2.81311e-30
2.81311e-30
2.81311e-30
2.81311e-30
2.81311e-30
2.81311e-30
2.81311e-30
2.81311e-30
2.81311e-30
2.81311e-30
2.81311e-30
2.81311e-30
2.81311e-30
2.81311e-30
2.81311e-30
2.81311e-30
2.81311e-30
2.81311e-30
2.81311e-30
2.81311e-30
2.81311e-30
2.81311e-30
2.81311e-30
2.81311e-30
2.81311e-30
2.81311e-30
2.81311e-30
2.81311e-30
2.81311e-30
2.81311e-30
2.81311e-30
2.81311e-30
2.81311e-30
2.81311e-30
2.81311e-30
2.81311e-30
2.81311e-30
2.81311e-30
2.81311e-30
2.81311e-30
2.81311e-30
2.81311e-30
2.81311e-30
2.81311e-30
2.81311e-30
2.81311e-30
2.81311e-30
2.81311e-30
2.81311e-30
2.81311e-30
2.81311e-30
2.81311e-30
2.81311e-30
2.81311e-30
2.81311e-30
2.81311e-30
2.81311e-30
2.81311e-30
2.81311e-30
2.81311e-30
2.81311e-30
2.81311e-30
2.81311e-30
2.81311e-30
2.81311e-30
2.81311e-30
2.81311e-30
2.81311e-30
2.81311e-30
2.81311e-30
2.81311e-30
2.81311e-30
2.81311e-30
2.81311e-30
2.81311e-30
2.81311e-30
2.81311e-30
2.81311e-30
2.81311e-30
2.81311e-30
2.81311e-30
2.81311e-30
2.81311e-30
2.81311e-30
2.81311e-30
2.81311e-30
2.81311e-30
2.81311e-30
2.81311e-30
2.81311e-30
2.81311e-30
2.81311e-30
2.81311e-30
2.81311e-30
2.81311e-30
2.81311e-30
2.81311e-30
2.81311e-30
2.81311e-30
2.81311e-30
2.81311e-30
2.81311e-30
2.81311e-30
2.81311e-30
2.81311e-30
2.81311e-30
2.81311e-30
2.81311e-30
2.81311e-30
2.81311e-30
2.81311e-30
2.81311e-30
2.81311e-30
2.81311e-30
2.81311e-30
2.81311e-30
2.81311e-30
2.81311e-30
2.81311e-30
2.81311e-30
2.81311e-30
2.81311e-30
2.81311e-30
2.81311e-30
2.81311e-30
2.81311e-30
2.81311e-30
2.81311e-30
2.81311e-30
2.81311e-30
2.81311e-30
2.81311e-30
2.81311e-30
2.81311e-30
2.81311e-30
2.81311e-30
2.81311e-30
2.81311e-30
2.81311e-30
2.81311e-30
2.81311e-30
2.81311e-30
2.81311e-30
2.81311e-30
2.81311e-30
2.81311e-30
2.81311e-30
2.81311e-30
2.81311e-30
2.81311e-30
2.81311e-30
2.81311e-30
2.81311e-30
2.81311e-30
2.81311e-30
2.81311e-30
2.81311e-30
2.81311e-30
2.81311e-30
2.81311e-30
2.81311e-30
2.81311e-30
2.81311e-30
2.81311e-30
2.81311e-30
)
;

boundaryField
{
    topWall
    {
        type            zeroGradient;
    }
    bottomWall
    {
        type            zeroGradient;
    }
    sideWallL
    {
        type            symmetry;
    }
    sideWallR
    {
        type            zeroGradient;
    }
    frontAndBack
    {
        type            empty;
    }
}


// ************************************************************************* //
