/*--------------------------------*- C++ -*----------------------------------*\
  =========                 |
  \\      /  F ield         | OpenFOAM: The Open Source CFD Toolbox
   \\    /   O peration     | Website:  https://openfoam.org
    \\  /    A nd           | Version:  7
     \\/     M anipulation  |
\*---------------------------------------------------------------------------*/
FoamFile
{
    version     2.0;
    format      ascii;
    class       volScalarField;
    location    "11";
    object      rhog;
}
// * * * * * * * * * * * * * * * * * * * * * * * * * * * * * * * * * * * * * //

dimensions      [1 -3 0 0 0 0 0];

internalField   nonuniform List<scalar> 
900
(
1.02662e-09
1.02651e-09
1.02627e-09
1.02586e-09
1.02519e-09
1.02413e-09
1.02248e-09
1.01992e-09
1.01595e-09
1.0098e-09
1.00027e-09
9.85417e-10
9.6215e-10
9.25392e-10
8.6666e-10
7.71636e-10
6.17284e-10
3.79085e-10
1.05016e-10
1.37359e-12
6.03126e-11
6.02924e-11
6.02479e-11
6.01706e-11
6.00458e-11
5.98495e-11
5.9545e-11
5.90758e-11
5.83564e-11
5.72582e-11
5.55906e-11
5.30769e-11
4.93319e-11
4.38637e-11
3.61692e-11
2.60855e-11
1.46319e-11
4.96656e-12
5.82205e-13
7.55368e-15
4.69629e-12
4.69364e-12
4.68782e-12
4.67773e-12
4.66148e-12
4.63606e-12
4.59686e-12
4.537e-12
4.44634e-12
4.31034e-12
4.10889e-12
3.81591e-12
3.40159e-12
2.84112e-12
2.13607e-12
1.35072e-12
6.39323e-13
1.86028e-13
2.47667e-14
1.29026e-15
5.01303e-13
5.00923e-13
5.00092e-13
4.98655e-13
4.96348e-13
4.92759e-13
4.87266e-13
4.78958e-13
4.66537e-13
4.48228e-13
4.2175e-13
3.84474e-13
3.34033e-13
2.69714e-13
1.94779e-13
1.1874e-13
5.62022e-14
1.85627e-14
3.94776e-15
6.40518e-16
7.47034e-14
7.46375e-14
7.44936e-14
7.42455e-14
7.3849e-14
7.32355e-14
7.23034e-14
7.09068e-14
6.88441e-14
6.58511e-14
6.16082e-14
5.57842e-14
4.81448e-14
3.87526e-14
2.82259e-14
1.78791e-14
9.40497e-15
3.96139e-15
1.36643e-15
4.59552e-16
1.56108e-14
1.55965e-14
1.55653e-14
1.55117e-14
1.54263e-14
1.52948e-14
1.50965e-14
1.48019e-14
1.43713e-14
1.37544e-14
1.28927e-14
1.17298e-14
1.02314e-14
8.41869e-15
6.40466e-15
4.40649e-15
2.693e-15
1.46302e-15
7.38546e-16
3.84487e-16
4.54482e-15
4.54091e-15
4.53242e-15
4.51785e-15
4.49476e-15
4.45941e-15
4.40638e-15
4.32819e-15
4.21488e-15
4.05405e-15
3.83168e-15
3.53444e-15
3.15428e-15
2.69514e-15
2.18006e-15
1.65342e-15
1.17229e-15
7.85862e-16
5.14744e-16
3.46759e-16
1.80836e-15
1.80705e-15
1.80419e-15
1.79932e-15
1.79161e-15
1.77986e-15
1.76235e-15
1.73667e-15
1.69972e-15
1.64764e-15
1.57609e-15
1.4809e-15
1.35926e-15
1.21147e-15
1.04274e-15
8.63998e-16
6.90444e-16
5.37339e-16
4.14948e-16
3.25737e-16
9.46477e-16
9.45947e-16
9.44796e-16
9.42834e-16
9.39747e-16
9.35062e-16
9.28109e-16
9.17976e-16
9.03475e-16
8.83146e-16
8.55341e-16
8.18429e-16
7.71177e-16
7.13292e-16
6.46003e-16
5.72428e-16
4.97355e-16
4.26283e-16
3.63987e-16
3.13312e-16
6.15412e-16
6.15163e-16
6.14624e-16
6.13708e-16
6.12271e-16
6.101e-16
6.06894e-16
6.02246e-16
5.95629e-16
5.86399e-16
5.73822e-16
5.57154e-16
5.3578e-16
5.0941e-16
4.7831e-16
4.43468e-16
4.06602e-16
3.69922e-16
3.35686e-16
3.05707e-16
4.67067e-16
4.66936e-16
4.66652e-16
4.66171e-16
4.6542e-16
4.64289e-16
4.62629e-16
4.60234e-16
4.56844e-16
4.52139e-16
4.45755e-16
4.37314e-16
4.26486e-16
4.13071e-16
3.97096e-16
3.78901e-16
3.59172e-16
3.38877e-16
3.19125e-16
3.00958e-16
3.92582e-16
3.92506e-16
3.92343e-16
3.92068e-16
3.91639e-16
3.90998e-16
3.90062e-16
3.88719e-16
3.86829e-16
3.8422e-16
3.80698e-16
3.76058e-16
3.70115e-16
3.62743e-16
3.5392e-16
3.43773e-16
3.32598e-16
3.20857e-16
3.09116e-16
2.97959e-16
3.52037e-16
3.51991e-16
3.51892e-16
3.51724e-16
3.51465e-16
3.51079e-16
3.50519e-16
3.4972e-16
3.48603e-16
3.4707e-16
3.45013e-16
3.42316e-16
3.38874e-16
3.3461e-16
3.29499e-16
3.23593e-16
3.17033e-16
3.10052e-16
3.02949e-16
2.96056e-16
3.2872e-16
3.2869e-16
3.28627e-16
3.28521e-16
3.28358e-16
3.28117e-16
3.27768e-16
3.27275e-16
3.26589e-16
3.25655e-16
3.24408e-16
3.22784e-16
3.20721e-16
3.18173e-16
3.15123e-16
3.11596e-16
3.07662e-16
3.03446e-16
2.99112e-16
2.94848e-16
3.1482e-16
3.14801e-16
3.1476e-16
3.14692e-16
3.14587e-16
3.14432e-16
3.1421e-16
3.13898e-16
3.13468e-16
3.12886e-16
3.12115e-16
3.11116e-16
3.09854e-16
3.08304e-16
3.06454e-16
3.04316e-16
3.01931e-16
2.99366e-16
2.96715e-16
2.94084e-16
3.06352e-16
3.0634e-16
3.06313e-16
3.06268e-16
3.062e-16
3.061e-16
3.05957e-16
3.05758e-16
3.05485e-16
3.05119e-16
3.04636e-16
3.04016e-16
3.03238e-16
3.02286e-16
3.01155e-16
2.99852e-16
2.984e-16
2.96837e-16
2.95217e-16
2.93602e-16
3.01134e-16
3.01125e-16
3.01108e-16
3.01078e-16
3.01034e-16
3.00969e-16
3.00877e-16
3.0075e-16
3.00576e-16
3.00345e-16
3.00043e-16
2.99657e-16
2.99175e-16
2.9859e-16
2.97898e-16
2.97104e-16
2.96221e-16
2.95271e-16
2.94286e-16
2.93301e-16
2.97904e-16
2.97898e-16
2.97887e-16
2.97868e-16
2.97839e-16
2.97797e-16
2.97738e-16
2.97657e-16
2.97547e-16
2.97402e-16
2.97213e-16
2.96973e-16
2.96677e-16
2.96318e-16
2.95896e-16
2.95413e-16
2.94879e-16
2.94305e-16
2.9371e-16
2.93114e-16
2.95907e-16
2.95904e-16
2.95896e-16
2.95884e-16
2.95865e-16
2.95839e-16
2.95801e-16
2.9575e-16
2.95681e-16
2.9559e-16
2.95473e-16
2.95325e-16
2.95143e-16
2.94925e-16
2.94669e-16
2.94378e-16
2.94057e-16
2.93713e-16
2.93356e-16
2.92999e-16
2.94679e-16
2.94677e-16
2.94672e-16
2.94664e-16
2.94652e-16
2.94635e-16
2.94612e-16
2.9458e-16
2.94537e-16
2.94481e-16
2.94409e-16
2.94319e-16
2.94208e-16
2.94076e-16
2.93923e-16
2.93749e-16
2.93557e-16
2.93353e-16
2.93141e-16
2.92929e-16
2.93929e-16
2.93928e-16
2.93925e-16
2.9392e-16
2.93912e-16
2.93902e-16
2.93887e-16
2.93867e-16
2.93841e-16
2.93807e-16
2.93763e-16
2.93709e-16
2.93642e-16
2.93563e-16
2.93472e-16
2.93369e-16
2.93256e-16
2.93136e-16
2.93011e-16
2.92887e-16
2.93476e-16
2.93475e-16
2.93473e-16
2.9347e-16
2.93465e-16
2.93459e-16
2.9345e-16
2.93438e-16
2.93422e-16
2.93401e-16
2.93375e-16
2.93342e-16
2.93303e-16
2.93256e-16
2.93203e-16
2.93142e-16
2.93076e-16
2.93006e-16
2.92934e-16
2.92862e-16
2.93204e-16
2.93204e-16
2.93203e-16
2.93201e-16
2.93198e-16
2.93194e-16
2.93189e-16
2.93181e-16
2.93172e-16
2.93159e-16
2.93144e-16
2.93125e-16
2.93102e-16
2.93075e-16
2.93043e-16
2.93008e-16
2.9297e-16
2.9293e-16
2.92888e-16
2.92847e-16
2.93044e-16
2.93043e-16
2.93043e-16
2.93042e-16
2.9304e-16
2.93038e-16
2.93034e-16
2.9303e-16
2.93024e-16
2.93017e-16
2.93008e-16
2.92997e-16
2.92984e-16
2.92968e-16
2.9295e-16
2.9293e-16
2.92908e-16
2.92885e-16
2.92862e-16
2.92838e-16
2.9295e-16
2.9295e-16
2.92949e-16
2.92949e-16
2.92948e-16
2.92946e-16
2.92944e-16
2.92942e-16
2.92939e-16
2.92934e-16
2.92929e-16
2.92923e-16
2.92915e-16
2.92906e-16
2.92896e-16
2.92885e-16
2.92873e-16
2.9286e-16
2.92846e-16
2.92833e-16
2.92896e-16
2.92896e-16
2.92895e-16
2.92895e-16
2.92894e-16
2.92894e-16
2.92893e-16
2.92891e-16
2.92889e-16
2.92887e-16
2.92884e-16
2.9288e-16
2.92876e-16
2.92871e-16
2.92865e-16
2.92859e-16
2.92852e-16
2.92845e-16
2.92838e-16
2.9283e-16
2.92865e-16
2.92865e-16
2.92865e-16
2.92865e-16
2.92864e-16
2.92864e-16
2.92863e-16
2.92862e-16
2.92861e-16
2.9286e-16
2.92858e-16
2.92856e-16
2.92854e-16
2.92851e-16
2.92848e-16
2.92844e-16
2.92841e-16
2.92837e-16
2.92833e-16
2.92829e-16
2.92848e-16
2.92848e-16
2.92847e-16
2.92847e-16
2.92847e-16
2.92847e-16
2.92847e-16
2.92846e-16
2.92846e-16
2.92845e-16
2.92844e-16
2.92843e-16
2.92841e-16
2.9284e-16
2.92838e-16
2.92836e-16
2.92834e-16
2.92832e-16
2.9283e-16
2.92828e-16
2.92838e-16
2.92838e-16
2.92838e-16
2.92838e-16
2.92838e-16
2.92838e-16
2.92837e-16
2.92837e-16
2.92837e-16
2.92836e-16
2.92836e-16
2.92835e-16
2.92835e-16
2.92834e-16
2.92833e-16
2.92832e-16
2.92831e-16
2.9283e-16
2.92828e-16
2.92827e-16
2.92833e-16
2.92833e-16
2.92833e-16
2.92833e-16
2.92833e-16
2.92832e-16
2.92832e-16
2.92832e-16
2.92832e-16
2.92832e-16
2.92832e-16
2.92831e-16
2.92831e-16
2.9283e-16
2.9283e-16
2.92829e-16
2.92829e-16
2.92828e-16
2.92828e-16
2.92827e-16
2.9283e-16
2.9283e-16
2.9283e-16
2.9283e-16
2.9283e-16
2.9283e-16
2.9283e-16
2.9283e-16
2.9283e-16
2.92829e-16
2.92829e-16
2.92829e-16
2.92829e-16
2.92829e-16
2.92828e-16
2.92828e-16
2.92828e-16
2.92827e-16
2.92827e-16
2.92827e-16
2.92828e-16
2.92828e-16
2.92828e-16
2.92828e-16
2.92828e-16
2.92828e-16
2.92828e-16
2.92828e-16
2.92828e-16
2.92828e-16
2.92828e-16
2.92828e-16
2.92828e-16
2.92828e-16
2.92828e-16
2.92827e-16
2.92827e-16
2.92827e-16
2.92827e-16
2.92827e-16
2.92828e-16
2.92828e-16
2.92828e-16
2.92828e-16
2.92828e-16
2.92827e-16
2.92827e-16
2.92827e-16
2.92827e-16
2.92827e-16
2.92827e-16
2.92827e-16
2.92827e-16
2.92827e-16
2.92827e-16
2.92827e-16
2.92827e-16
2.92827e-16
2.92827e-16
2.92827e-16
2.92827e-16
2.92827e-16
2.92827e-16
2.92827e-16
2.92827e-16
2.92827e-16
2.92827e-16
2.92827e-16
2.92827e-16
2.92827e-16
2.92827e-16
2.92827e-16
2.92827e-16
2.92827e-16
2.92827e-16
2.92827e-16
2.92827e-16
2.92827e-16
2.92827e-16
2.92827e-16
2.92827e-16
2.92827e-16
2.92827e-16
2.92827e-16
2.92827e-16
2.92827e-16
2.92827e-16
2.92827e-16
2.92827e-16
2.92827e-16
2.92827e-16
2.92827e-16
2.92827e-16
2.92827e-16
2.92827e-16
2.92827e-16
2.92827e-16
2.92827e-16
2.92827e-16
2.92827e-16
2.92827e-16
2.92827e-16
2.92827e-16
2.92827e-16
2.92827e-16
2.92827e-16
2.92827e-16
2.92827e-16
2.92827e-16
2.92827e-16
2.92827e-16
2.92827e-16
2.92827e-16
2.92827e-16
2.92827e-16
2.92827e-16
2.92827e-16
2.92827e-16
2.92827e-16
2.92827e-16
2.92827e-16
2.92827e-16
2.92827e-16
2.92827e-16
2.92827e-16
2.92827e-16
2.92827e-16
2.92827e-16
2.92827e-16
2.92827e-16
2.92827e-16
2.92827e-16
2.92827e-16
2.92827e-16
2.92827e-16
2.92827e-16
2.92827e-16
2.92827e-16
2.92827e-16
2.92827e-16
2.92827e-16
2.92827e-16
2.92827e-16
2.92827e-16
2.92827e-16
2.92827e-16
2.92827e-16
2.92827e-16
2.92827e-16
2.92827e-16
2.92827e-16
2.92827e-16
2.92827e-16
2.92827e-16
2.92827e-16
2.92827e-16
2.92827e-16
2.92827e-16
2.92827e-16
2.92827e-16
2.92827e-16
2.92827e-16
2.92827e-16
2.92827e-16
2.92827e-16
2.92827e-16
2.92827e-16
2.92827e-16
2.92827e-16
2.92827e-16
2.92827e-16
2.92827e-16
2.92827e-16
2.92827e-16
2.92827e-16
2.92827e-16
2.92827e-16
2.92827e-16
2.92827e-16
2.92827e-16
2.92827e-16
2.92827e-16
2.92827e-16
2.92827e-16
2.92827e-16
2.92827e-16
2.92827e-16
2.92827e-16
2.92827e-16
2.92827e-16
2.92827e-16
2.92827e-16
2.92827e-16
2.92827e-16
2.92827e-16
2.92827e-16
2.92827e-16
2.92827e-16
2.92827e-16
2.92827e-16
2.92827e-16
2.92827e-16
2.92827e-16
2.92827e-16
2.92827e-16
2.92827e-16
2.92827e-16
2.92827e-16
2.92827e-16
2.92827e-16
2.92827e-16
2.92827e-16
2.92827e-16
2.92827e-16
2.92827e-16
2.92827e-16
2.92827e-16
2.92827e-16
2.92827e-16
2.92827e-16
2.92827e-16
2.92827e-16
2.92827e-16
2.92827e-16
2.92827e-16
2.92827e-16
2.92827e-16
2.92827e-16
2.92827e-16
2.92827e-16
2.92827e-16
2.92827e-16
2.92827e-16
2.92827e-16
2.92827e-16
2.92827e-16
2.92827e-16
2.92827e-16
2.92827e-16
2.92827e-16
2.92827e-16
2.92827e-16
2.92827e-16
2.92827e-16
2.92827e-16
2.92827e-16
2.92827e-16
2.92827e-16
2.92827e-16
2.92827e-16
2.92827e-16
2.92827e-16
2.92827e-16
2.92827e-16
2.92827e-16
2.92827e-16
2.92827e-16
2.92827e-16
2.92827e-16
2.92827e-16
2.92827e-16
2.92827e-16
2.92827e-16
2.92827e-16
2.92827e-16
2.92827e-16
2.92827e-16
2.92827e-16
2.92827e-16
2.92827e-16
2.92827e-16
2.92827e-16
2.92827e-16
2.92827e-16
2.92827e-16
2.92827e-16
2.92827e-16
2.92827e-16
2.92827e-16
2.92827e-16
2.92827e-16
2.92827e-16
2.92827e-16
2.92827e-16
2.92827e-16
2.92827e-16
2.92827e-16
2.92827e-16
2.92827e-16
2.92827e-16
2.92827e-16
2.92827e-16
2.92827e-16
2.92827e-16
2.92827e-16
2.92827e-16
2.92827e-16
2.92827e-16
2.92827e-16
2.92827e-16
)
;

boundaryField
{
    topWall
    {
        type            calculated;
        value           uniform 0;
    }
    bottomWall
    {
        type            zeroGradient;
    }
    sideWallL
    {
        type            symmetry;
    }
    sideWallR
    {
        type            calculated;
        value           uniform 0;
    }
    frontAndBack
    {
        type            empty;
    }
}


// ************************************************************************* //
