/*--------------------------------*- C++ -*----------------------------------*\
  =========                 |
  \\      /  F ield         | OpenFOAM: The Open Source CFD Toolbox
   \\    /   O peration     | Website:  https://openfoam.org
    \\  /    A nd           | Version:  7
     \\/     M anipulation  |
\*---------------------------------------------------------------------------*/
FoamFile
{
    version     2.0;
    format      ascii;
    class       volScalarField;
    location    "11";
    object      rhois;
}
// * * * * * * * * * * * * * * * * * * * * * * * * * * * * * * * * * * * * * //

dimensions      [1 -3 0 0 0 0 0];

internalField   nonuniform List<scalar> 
900
(
2.83819e-07
2.83799e-07
2.83754e-07
2.83676e-07
2.83549e-07
2.83349e-07
2.83034e-07
2.82544e-07
2.81782e-07
2.80593e-07
2.78736e-07
2.75822e-07
2.71212e-07
2.63832e-07
2.5182e-07
2.31807e-07
1.97614e-07
1.39343e-07
5.55175e-08
2.52043e-09
3.60239e-08
3.60158e-08
3.59978e-08
3.59666e-08
3.59158e-08
3.58357e-08
3.57107e-08
3.55169e-08
3.52175e-08
3.47562e-08
3.40476e-08
3.29628e-08
3.13112e-08
2.88223e-08
2.51469e-08
1.99452e-08
1.32279e-08
6.14028e-09
1.34735e-09
6.58021e-11
5.66534e-09
5.66319e-09
5.65849e-09
5.6503e-09
5.63706e-09
5.61622e-09
5.58389e-09
5.53412e-09
5.45801e-09
5.34242e-09
5.16836e-09
4.90945e-09
4.53133e-09
3.99507e-09
3.27071e-09
2.37033e-09
1.40156e-09
5.90399e-10
1.45888e-10
1.96366e-11
1.13312e-09
1.13255e-09
1.13131e-09
1.12915e-09
1.12566e-09
1.12021e-09
1.1118e-09
1.09897e-09
1.07956e-09
1.05052e-09
1.00767e-09
9.4564e-10
8.58321e-10
7.40439e-10
5.91131e-10
4.19715e-10
2.50469e-10
1.17229e-10
4.11751e-11
1.21516e-11
2.92765e-10
2.92598e-10
2.92231e-10
2.91596e-10
2.90577e-10
2.88989e-10
2.86557e-10
2.82877e-10
2.77371e-10
2.69249e-10
2.57475e-10
2.40811e-10
2.17999e-10
1.88212e-10
1.51849e-10
1.11514e-10
7.23743e-11
4.06417e-11
2.00854e-11
9.6537e-12
9.82389e-11
9.8182e-11
9.80577e-11
9.7843e-11
9.74995e-11
9.69674e-11
9.61576e-11
9.49421e-11
9.31421e-11
9.05185e-11
8.67701e-11
8.15533e-11
7.45434e-11
6.55595e-11
5.47571e-11
4.28245e-11
3.10157e-11
2.08151e-11
1.32755e-11
8.51891e-12
4.25091e-11
4.24867e-11
4.24379e-11
4.23539e-11
4.222e-11
4.20136e-11
4.17015e-11
4.12365e-11
4.05541e-11
3.95694e-11
3.81782e-11
3.62648e-11
3.37223e-11
3.0491e-11
2.66123e-11
2.228e-11
1.78496e-11
1.37628e-11
1.03958e-11
7.91805e-12
2.31547e-11
2.31446e-11
2.31226e-11
2.30849e-11
2.30251e-11
2.29334e-11
2.27956e-11
2.25917e-11
2.22948e-11
2.187e-11
2.12752e-11
2.04639e-11
1.93929e-11
1.80356e-11
1.63995e-11
1.45434e-11
1.25829e-11
1.06731e-11
8.96746e-12
7.57231e-12
1.52399e-11
1.52348e-11
1.52237e-11
1.52047e-11
1.51747e-11
1.51289e-11
1.50605e-11
1.49599e-11
1.48146e-11
1.46082e-11
1.43214e-11
1.39328e-11
1.34222e-11
1.27756e-11
1.19922e-11
1.1091e-11
1.01143e-11
9.12328e-12
8.18671e-12
7.36367e-12
1.15503e-11
1.15475e-11
1.15413e-11
1.15308e-11
1.15142e-11
1.14891e-11
1.14518e-11
1.13973e-11
1.13191e-11
1.12089e-11
1.10568e-11
1.0852e-11
1.0584e-11
1.02451e-11
9.83305e-12
9.35436e-12
8.82598e-12
8.27475e-12
7.73342e-12
7.2342e-12
9.64987e-12
9.64816e-12
9.64447e-12
9.63821e-12
9.62839e-12
9.61358e-12
9.59171e-12
9.56002e-12
9.51485e-12
9.45166e-12
9.36507e-12
9.2492e-12
9.09836e-12
8.90808e-12
8.67653e-12
8.40603e-12
8.10403e-12
7.78325e-12
7.46021e-12
7.1526e-12
8.59709e-12
8.59602e-12
8.5937e-12
8.58977e-12
8.58365e-12
8.57445e-12
8.56098e-12
8.54158e-12
8.51415e-12
8.47606e-12
8.42425e-12
8.35541e-12
8.2663e-12
8.15434e-12
8.0183e-12
7.85908e-12
7.68025e-12
7.48824e-12
7.29179e-12
7.10075e-12
7.98349e-12
7.98278e-12
7.98127e-12
7.97873e-12
7.97477e-12
7.96888e-12
7.96029e-12
7.94802e-12
7.9308e-12
7.90707e-12
7.87506e-12
7.83283e-12
7.77852e-12
7.71064e-12
7.62844e-12
7.53232e-12
7.42413e-12
7.30731e-12
7.18664e-12
7.06771e-12
7.61353e-12
7.61306e-12
7.61205e-12
7.61037e-12
7.60777e-12
7.60391e-12
7.59833e-12
7.59042e-12
7.5794e-12
7.56433e-12
7.54417e-12
7.51777e-12
7.48407e-12
7.4422e-12
7.39173e-12
7.33287e-12
7.26666e-12
7.19501e-12
7.12062e-12
7.04668e-12
7.38573e-12
7.38541e-12
7.38474e-12
7.38361e-12
7.38189e-12
7.37934e-12
7.37568e-12
7.37053e-12
7.36342e-12
7.35377e-12
7.34095e-12
7.32431e-12
7.30321e-12
7.27717e-12
7.24595e-12
7.20969e-12
7.16899e-12
7.12495e-12
7.07912e-12
7.03334e-12
7.24384e-12
7.24363e-12
7.24318e-12
7.24243e-12
7.24128e-12
7.2396e-12
7.2372e-12
7.23384e-12
7.22924e-12
7.22305e-12
7.21489e-12
7.20438e-12
7.19115e-12
7.17493e-12
7.1556e-12
7.13325e-12
7.10824e-12
7.08123e-12
7.0531e-12
7.02493e-12
7.15507e-12
7.15493e-12
7.15463e-12
7.15413e-12
7.15337e-12
7.15227e-12
7.1507e-12
7.14852e-12
7.14556e-12
7.1416e-12
7.13643e-12
7.12981e-12
7.12154e-12
7.11147e-12
7.09954e-12
7.08581e-12
7.07052e-12
7.05402e-12
7.03686e-12
7.01966e-12
7.09958e-12
7.09949e-12
7.09929e-12
7.09896e-12
7.09846e-12
7.09774e-12
7.09672e-12
7.09532e-12
7.09343e-12
7.09092e-12
7.08767e-12
7.08353e-12
7.07839e-12
7.07218e-12
7.06486e-12
7.05649e-12
7.04719e-12
7.03719e-12
7.02681e-12
7.01639e-12
7.06504e-12
7.06498e-12
7.06485e-12
7.06464e-12
7.06431e-12
7.06385e-12
7.0632e-12
7.06231e-12
7.06111e-12
7.05954e-12
7.05751e-12
7.05494e-12
7.05179e-12
7.04799e-12
7.04354e-12
7.03847e-12
7.03286e-12
7.02686e-12
7.02062e-12
7.01438e-12
7.0437e-12
7.04366e-12
7.04358e-12
7.04344e-12
7.04323e-12
7.04294e-12
7.04253e-12
7.04197e-12
7.04122e-12
7.04024e-12
7.03899e-12
7.03742e-12
7.0355e-12
7.0332e-12
7.03052e-12
7.02748e-12
7.02414e-12
7.02056e-12
7.01686e-12
7.01315e-12
7.03063e-12
7.03061e-12
7.03055e-12
7.03047e-12
7.03034e-12
7.03015e-12
7.0299e-12
7.02955e-12
7.02909e-12
7.02849e-12
7.02773e-12
7.02678e-12
7.02562e-12
7.02425e-12
7.02265e-12
7.02085e-12
7.01887e-12
7.01677e-12
7.01459e-12
7.01241e-12
7.02271e-12
7.0227e-12
7.02266e-12
7.02261e-12
7.02253e-12
7.02241e-12
7.02226e-12
7.02205e-12
7.02177e-12
7.0214e-12
7.02095e-12
7.02038e-12
7.01969e-12
7.01888e-12
7.01794e-12
7.01688e-12
7.01573e-12
7.0145e-12
7.01324e-12
7.01197e-12
7.01797e-12
7.01796e-12
7.01794e-12
7.0179e-12
7.01785e-12
7.01779e-12
7.01769e-12
7.01756e-12
7.0174e-12
7.01718e-12
7.01691e-12
7.01658e-12
7.01617e-12
7.0157e-12
7.01515e-12
7.01454e-12
7.01387e-12
7.01316e-12
7.01244e-12
7.01171e-12
7.01516e-12
7.01515e-12
7.01514e-12
7.01512e-12
7.01509e-12
7.01505e-12
7.01499e-12
7.01492e-12
7.01482e-12
7.01469e-12
7.01453e-12
7.01434e-12
7.01411e-12
7.01383e-12
7.01352e-12
7.01317e-12
7.01279e-12
7.01238e-12
7.01197e-12
7.01156e-12
7.01352e-12
7.01351e-12
7.01351e-12
7.01349e-12
7.01348e-12
7.01345e-12
7.01342e-12
7.01337e-12
7.01332e-12
7.01324e-12
7.01315e-12
7.01304e-12
7.01291e-12
7.01275e-12
7.01257e-12
7.01238e-12
7.01216e-12
7.01193e-12
7.0117e-12
7.01147e-12
7.01257e-12
7.01257e-12
7.01256e-12
7.01256e-12
7.01255e-12
7.01253e-12
7.01251e-12
7.01249e-12
7.01245e-12
7.01241e-12
7.01236e-12
7.0123e-12
7.01222e-12
7.01213e-12
7.01203e-12
7.01192e-12
7.0118e-12
7.01168e-12
7.01155e-12
7.01142e-12
7.01203e-12
7.01203e-12
7.01202e-12
7.01202e-12
7.01201e-12
7.01201e-12
7.012e-12
7.01198e-12
7.01196e-12
7.01194e-12
7.01191e-12
7.01188e-12
7.01183e-12
7.01178e-12
7.01173e-12
7.01167e-12
7.0116e-12
7.01153e-12
7.01146e-12
7.01139e-12
7.01172e-12
7.01172e-12
7.01172e-12
7.01172e-12
7.01172e-12
7.01171e-12
7.01171e-12
7.0117e-12
7.01169e-12
7.01167e-12
7.01166e-12
7.01164e-12
7.01162e-12
7.01159e-12
7.01156e-12
7.01153e-12
7.01149e-12
7.01145e-12
7.01141e-12
7.01138e-12
7.01156e-12
7.01156e-12
7.01155e-12
7.01155e-12
7.01155e-12
7.01155e-12
7.01155e-12
7.01154e-12
7.01154e-12
7.01153e-12
7.01152e-12
7.01151e-12
7.0115e-12
7.01148e-12
7.01147e-12
7.01145e-12
7.01143e-12
7.01141e-12
7.01139e-12
7.01137e-12
7.01146e-12
7.01146e-12
7.01146e-12
7.01146e-12
7.01146e-12
7.01146e-12
7.01146e-12
7.01146e-12
7.01145e-12
7.01145e-12
7.01144e-12
7.01144e-12
7.01143e-12
7.01142e-12
7.01142e-12
7.01141e-12
7.0114e-12
7.01138e-12
7.01137e-12
7.01136e-12
7.01141e-12
7.01141e-12
7.01141e-12
7.01141e-12
7.01141e-12
7.01141e-12
7.01141e-12
7.01141e-12
7.01141e-12
7.01141e-12
7.0114e-12
7.0114e-12
7.0114e-12
7.01139e-12
7.01139e-12
7.01138e-12
7.01138e-12
7.01137e-12
7.01137e-12
7.01136e-12
7.01139e-12
7.01139e-12
7.01139e-12
7.01139e-12
7.01139e-12
7.01139e-12
7.01139e-12
7.01138e-12
7.01138e-12
7.01138e-12
7.01138e-12
7.01138e-12
7.01138e-12
7.01138e-12
7.01137e-12
7.01137e-12
7.01137e-12
7.01137e-12
7.01136e-12
7.01136e-12
7.01137e-12
7.01137e-12
7.01137e-12
7.01137e-12
7.01137e-12
7.01137e-12
7.01137e-12
7.01137e-12
7.01137e-12
7.01137e-12
7.01137e-12
7.01137e-12
7.01137e-12
7.01137e-12
7.01137e-12
7.01136e-12
7.01136e-12
7.01136e-12
7.01136e-12
7.01136e-12
7.01137e-12
7.01137e-12
7.01137e-12
7.01137e-12
7.01137e-12
7.01137e-12
7.01136e-12
7.01136e-12
7.01136e-12
7.01136e-12
7.01136e-12
7.01136e-12
7.01136e-12
7.01136e-12
7.01136e-12
7.01136e-12
7.01136e-12
7.01136e-12
7.01136e-12
7.01136e-12
7.01136e-12
7.01136e-12
7.01136e-12
7.01136e-12
7.01136e-12
7.01136e-12
7.01136e-12
7.01136e-12
7.01136e-12
7.01136e-12
7.01136e-12
7.01136e-12
7.01136e-12
7.01136e-12
7.01136e-12
7.01136e-12
7.01136e-12
7.01136e-12
7.01136e-12
7.01136e-12
7.01136e-12
7.01136e-12
7.01136e-12
7.01136e-12
7.01136e-12
7.01136e-12
7.01136e-12
7.01136e-12
7.01136e-12
7.01136e-12
7.01136e-12
7.01136e-12
7.01136e-12
7.01136e-12
7.01136e-12
7.01136e-12
7.01136e-12
7.01136e-12
7.01136e-12
7.01136e-12
7.01136e-12
7.01136e-12
7.01136e-12
7.01136e-12
7.01136e-12
7.01136e-12
7.01136e-12
7.01136e-12
7.01136e-12
7.01136e-12
7.01136e-12
7.01136e-12
7.01136e-12
7.01136e-12
7.01136e-12
7.01136e-12
7.01136e-12
7.01136e-12
7.01136e-12
7.01136e-12
7.01136e-12
7.01136e-12
7.01136e-12
7.01136e-12
7.01136e-12
7.01136e-12
7.01136e-12
7.01136e-12
7.01136e-12
7.01136e-12
7.01136e-12
7.01136e-12
7.01136e-12
7.01136e-12
7.01136e-12
7.01136e-12
7.01136e-12
7.01136e-12
7.01136e-12
7.01136e-12
7.01136e-12
7.01136e-12
7.01136e-12
7.01136e-12
7.01136e-12
7.01136e-12
7.01136e-12
7.01136e-12
7.01136e-12
7.01136e-12
7.01136e-12
7.01136e-12
7.01136e-12
7.01136e-12
7.01136e-12
7.01136e-12
7.01136e-12
7.01136e-12
7.01136e-12
7.01136e-12
7.01136e-12
7.01136e-12
7.01136e-12
7.01136e-12
7.01136e-12
7.01136e-12
7.01136e-12
7.01136e-12
7.01136e-12
7.01136e-12
7.01136e-12
7.01136e-12
7.01136e-12
7.01136e-12
7.01136e-12
7.01136e-12
7.01136e-12
7.01136e-12
7.01136e-12
7.01136e-12
7.01136e-12
7.01136e-12
7.01136e-12
7.01136e-12
7.01136e-12
7.01136e-12
7.01136e-12
7.01136e-12
7.01136e-12
7.01136e-12
7.01136e-12
7.01136e-12
7.01136e-12
7.01136e-12
7.01136e-12
7.01136e-12
7.01136e-12
7.01136e-12
7.01136e-12
7.01136e-12
7.01136e-12
7.01136e-12
7.01136e-12
7.01136e-12
7.01136e-12
7.01136e-12
7.01136e-12
7.01136e-12
7.01136e-12
7.01136e-12
7.01136e-12
7.01136e-12
7.01136e-12
7.01136e-12
7.01136e-12
7.01136e-12
7.01136e-12
7.01136e-12
7.01136e-12
7.01136e-12
7.01136e-12
7.01136e-12
7.01136e-12
7.01136e-12
7.01136e-12
7.01136e-12
7.01136e-12
7.01136e-12
7.01136e-12
7.01136e-12
7.01136e-12
7.01136e-12
7.01136e-12
7.01136e-12
7.01136e-12
7.01136e-12
7.01136e-12
7.01136e-12
7.01136e-12
7.01136e-12
7.01136e-12
7.01136e-12
7.01136e-12
7.01136e-12
7.01136e-12
7.01136e-12
7.01136e-12
7.01136e-12
7.01136e-12
7.01136e-12
7.01136e-12
7.01136e-12
7.01136e-12
7.01136e-12
7.01136e-12
7.01136e-12
7.01136e-12
7.01136e-12
7.01136e-12
7.01136e-12
7.01136e-12
7.01136e-12
7.01136e-12
7.01136e-12
7.01136e-12
7.01136e-12
7.01136e-12
7.01136e-12
7.01136e-12
7.01136e-12
7.01136e-12
7.01136e-12
7.01136e-12
7.01136e-12
7.01136e-12
7.01136e-12
7.01136e-12
7.01136e-12
7.01136e-12
7.01136e-12
)
;

boundaryField
{
    topWall
    {
        type            zeroGradient;
    }
    bottomWall
    {
        type            zeroGradient;
    }
    sideWallL
    {
        type            symmetry;
    }
    sideWallR
    {
        type            zeroGradient;
    }
    frontAndBack
    {
        type            empty;
    }
}


// ************************************************************************* //
