/*--------------------------------*- C++ -*----------------------------------*\
  =========                 |
  \\      /  F ield         | OpenFOAM: The Open Source CFD Toolbox
   \\    /   O peration     | Website:  https://openfoam.org
    \\  /    A nd           | Version:  7
     \\/     M anipulation  |
\*---------------------------------------------------------------------------*/
FoamFile
{
    version     2.0;
    format      ascii;
    class       volScalarField;
    location    "11";
    object      rhot2;
}
// * * * * * * * * * * * * * * * * * * * * * * * * * * * * * * * * * * * * * //

dimensions      [1 -3 0 0 0 0 0];

internalField   nonuniform List<scalar> 
900
(
7.56729e-18
7.5658e-18
7.56252e-18
7.55681e-18
7.54756e-18
7.53298e-18
7.51025e-18
7.47503e-18
7.42059e-18
7.33657e-18
7.20697e-18
7.00713e-18
6.69915e-18
6.22549e-18
5.50217e-18
4.42056e-18
2.90209e-18
1.1569e-18
1.02718e-19
2.89546e-23
3.55335e-20
3.55112e-20
3.54624e-20
3.53775e-20
3.52405e-20
3.50254e-20
3.46927e-20
3.41826e-20
3.34065e-20
3.22369e-20
3.04969e-20
2.79578e-20
2.43647e-20
1.95335e-20
1.35867e-20
7.34235e-21
2.47093e-21
3.22814e-22
5.70573e-24
1.64199e-27
2.85306e-22
2.85006e-22
2.84348e-22
2.83208e-22
2.81374e-22
2.78515e-22
2.7413e-22
2.67491e-22
2.57571e-22
2.43006e-22
2.22144e-22
1.93351e-22
1.55816e-22
1.11095e-22
6.49882e-23
2.745e-23
6.72495e-24
6.60633e-25
1.50236e-26
6.05192e-29
4.17664e-24
4.17076e-24
4.1579e-24
4.13568e-24
4.10012e-24
4.04504e-24
3.96132e-24
3.83613e-24
3.6523e-24
3.3888e-24
3.02374e-24
2.5425e-24
1.95334e-24
1.30793e-24
7.10222e-25
2.8063e-25
6.90145e-26
8.66604e-27
4.81442e-28
1.64276e-29
1.15456e-25
1.15267e-25
1.14855e-25
1.14147e-25
1.13017e-25
1.11279e-25
1.08658e-25
1.04783e-25
9.91745e-26
9.12844e-26
8.06134e-26
6.69657e-26
5.08531e-26
3.38934e-26
1.87389e-26
7.9819e-27
2.40545e-27
4.80398e-28
6.66137e-29
8.85587e-30
6.08498e-27
6.0747e-27
6.05228e-27
6.01381e-27
5.95276e-27
5.85929e-27
5.7194e-27
5.51427e-27
5.22043e-27
4.81202e-27
4.26703e-27
3.57933e-27
2.77591e-27
1.93133e-27
1.16147e-27
5.79695e-28
2.32474e-28
7.51314e-29
2.12557e-29
6.35403e-30
6.04437e-28
6.03486e-28
6.01418e-28
5.97878e-28
5.92282e-28
5.83751e-28
5.7105e-28
5.52536e-28
5.26177e-28
4.89748e-28
4.41324e-28
3.8019e-28
3.08111e-28
2.30406e-28
1.55732e-28
9.3491e-29
4.9597e-29
2.37457e-29
1.08895e-29
5.24214e-30
1.08954e-28
1.0881e-28
1.08498e-28
1.07965e-28
1.07124e-28
1.05848e-28
1.03955e-28
1.01206e-28
9.73045e-29
9.19184e-29
8.47409e-29
7.55982e-29
6.4604e-29
5.23077e-29
3.97252e-29
2.81346e-29
1.8643e-29
1.17618e-29
7.30555e-30
4.66553e-30
3.29814e-29
3.2948e-29
3.28757e-29
3.27524e-29
3.25586e-29
3.22653e-29
3.18318e-29
3.12039e-29
3.03143e-29
2.90853e-29
2.74399e-29
2.53205e-29
2.27177e-29
1.97013e-29
1.64379e-29
1.3175e-29
1.0182e-29
7.66933e-30
5.73029e-30
4.33928e-30
1.49663e-29
1.49554e-29
1.49318e-29
1.48917e-29
1.48288e-29
1.4734e-29
1.45943e-29
1.43926e-29
1.41073e-29
1.37131e-29
1.31835e-29
1.24953e-29
1.1636e-29
1.06125e-29
9.45863e-30
8.23545e-30
7.02268e-30
5.90073e-30
4.93123e-30
4.145e-30
9.03055e-30
9.02597e-30
9.01607e-30
8.99928e-30
8.97307e-30
8.93369e-30
8.87591e-30
8.7928e-30
8.67561e-30
8.51394e-30
8.29647e-30
8.01247e-30
7.65417e-30
7.21984e-30
6.71674e-30
6.16275e-30
5.58525e-30
5.01684e-30
4.48895e-30
4.02575e-30
6.5678e-30
6.56551e-30
6.56056e-30
6.55221e-30
6.53922e-30
6.51979e-30
6.49142e-30
6.4508e-30
6.39378e-30
6.31537e-30
6.21006e-30
6.07238e-30
5.89785e-30
5.68423e-30
5.43284e-30
5.14958e-30
4.84505e-30
4.53353e-30
4.23077e-30
3.95129e-30
5.37583e-30
5.37454e-30
5.37178e-30
5.36712e-30
5.3599e-30
5.34916e-30
5.33357e-30
5.31137e-30
5.28037e-30
5.23795e-30
5.18117e-30
5.1071e-30
5.01314e-30
4.89768e-30
4.76073e-30
4.60444e-30
4.43337e-30
4.25424e-30
4.07515e-30
3.9044e-30
4.73824e-30
4.73746e-30
4.7358e-30
4.733e-30
4.7287e-30
4.72232e-30
4.71312e-30
4.7001e-30
4.68203e-30
4.65744e-30
4.62471e-30
4.58216e-30
4.52832e-30
4.46217e-30
4.38349e-30
4.29316e-30
4.19333e-30
4.08739e-30
3.97963e-30
3.87478e-30
4.37488e-30
4.37439e-30
4.37335e-30
4.3716e-30
4.36892e-30
4.36497e-30
4.3593e-30
4.35133e-30
4.34035e-30
4.3255e-30
4.30585e-30
4.28045e-30
4.24844e-30
4.20921e-30
4.16259e-30
4.10896e-30
4.04945e-30
3.98583e-30
3.92049e-30
3.85608e-30
4.15964e-30
4.15933e-30
4.15865e-30
4.15753e-30
4.15582e-30
4.15332e-30
4.14975e-30
4.14476e-30
4.13793e-30
4.12876e-30
4.11671e-30
4.10122e-30
4.0818e-30
4.05811e-30
4.03002e-30
3.99775e-30
3.9619e-30
3.92346e-30
3.88376e-30
3.84434e-30
4.02929e-30
4.02909e-30
4.02865e-30
4.02793e-30
4.02683e-30
4.02522e-30
4.02295e-30
4.0198e-30
4.01551e-30
4.0098e-30
4.00233e-30
3.9928e-30
3.98092e-30
3.96649e-30
3.94946e-30
3.92994e-30
3.90828e-30
3.88504e-30
3.86099e-30
3.837e-30
3.94951e-30
3.94937e-30
3.94909e-30
3.94862e-30
3.94791e-30
3.94688e-30
3.94544e-30
3.94344e-30
3.94075e-30
3.93718e-30
3.93255e-30
3.92668e-30
3.91941e-30
3.91062e-30
3.90029e-30
3.88849e-30
3.87543e-30
3.86144e-30
3.84694e-30
3.83245e-30
3.90052e-30
3.90043e-30
3.90025e-30
3.89995e-30
3.8995e-30
3.89884e-30
3.89792e-30
3.89667e-30
3.89499e-30
3.89277e-30
3.88991e-30
3.88631e-30
3.88187e-30
3.87654e-30
3.8703e-30
3.86321e-30
3.85538e-30
3.847e-30
3.83833e-30
3.82965e-30
3.87052e-30
3.87046e-30
3.87034e-30
3.87015e-30
3.86986e-30
3.86945e-30
3.86888e-30
3.86809e-30
3.86705e-30
3.86568e-30
3.86393e-30
3.86174e-30
3.85905e-30
3.85584e-30
3.8521e-30
3.84787e-30
3.84321e-30
3.83824e-30
3.83309e-30
3.82795e-30
3.85225e-30
3.85221e-30
3.85214e-30
3.85202e-30
3.85184e-30
3.85158e-30
3.85122e-30
3.85074e-30
3.8501e-30
3.84926e-30
3.8482e-30
3.84688e-30
3.84527e-30
3.84336e-30
3.84114e-30
3.83863e-30
3.83589e-30
3.83296e-30
3.82994e-30
3.82692e-30
3.84121e-30
3.84119e-30
3.84115e-30
3.84107e-30
3.84096e-30
3.8408e-30
3.84058e-30
3.84029e-30
3.8399e-30
3.8394e-30
3.83876e-30
3.83798e-30
3.83702e-30
3.83589e-30
3.83459e-30
3.83312e-30
3.83152e-30
3.82982e-30
3.82806e-30
3.82631e-30
3.83462e-30
3.83461e-30
3.83458e-30
3.83453e-30
3.83447e-30
3.83437e-30
3.83424e-30
3.83406e-30
3.83383e-30
3.83353e-30
3.83315e-30
3.83269e-30
3.83213e-30
3.83147e-30
3.83072e-30
3.82987e-30
3.82894e-30
3.82796e-30
3.82695e-30
3.82595e-30
3.83072e-30
3.83072e-30
3.8307e-30
3.83067e-30
3.83063e-30
3.83057e-30
3.83049e-30
3.83039e-30
3.83025e-30
3.83008e-30
3.82986e-30
3.82959e-30
3.82927e-30
3.82889e-30
3.82845e-30
3.82797e-30
3.82744e-30
3.82688e-30
3.82631e-30
3.82574e-30
3.82845e-30
3.82844e-30
3.82843e-30
3.82842e-30
3.82839e-30
3.82836e-30
3.82831e-30
3.82825e-30
3.82817e-30
3.82807e-30
3.82794e-30
3.82779e-30
3.82761e-30
3.82739e-30
3.82714e-30
3.82687e-30
3.82657e-30
3.82626e-30
3.82594e-30
3.82561e-30
3.82713e-30
3.82713e-30
3.82713e-30
3.82712e-30
3.8271e-30
3.82708e-30
3.82706e-30
3.82702e-30
3.82698e-30
3.82692e-30
3.82685e-30
3.82676e-30
3.82665e-30
3.82653e-30
3.8264e-30
3.82624e-30
3.82608e-30
3.8259e-30
3.82572e-30
3.82554e-30
3.82639e-30
3.82639e-30
3.82638e-30
3.82638e-30
3.82637e-30
3.82636e-30
3.82634e-30
3.82632e-30
3.8263e-30
3.82626e-30
3.82622e-30
3.82617e-30
3.82612e-30
3.82605e-30
3.82597e-30
3.82589e-30
3.8258e-30
3.8257e-30
3.8256e-30
3.82551e-30
3.82597e-30
3.82597e-30
3.82596e-30
3.82596e-30
3.82596e-30
3.82595e-30
3.82594e-30
3.82593e-30
3.82592e-30
3.8259e-30
3.82588e-30
3.82585e-30
3.82582e-30
3.82578e-30
3.82574e-30
3.82569e-30
3.82564e-30
3.82559e-30
3.82554e-30
3.82548e-30
3.82573e-30
3.82573e-30
3.82573e-30
3.82573e-30
3.82573e-30
3.82572e-30
3.82572e-30
3.82571e-30
3.8257e-30
3.82569e-30
3.82568e-30
3.82567e-30
3.82565e-30
3.82563e-30
3.82561e-30
3.82558e-30
3.82556e-30
3.82553e-30
3.8255e-30
3.82547e-30
3.8256e-30
3.8256e-30
3.8256e-30
3.8256e-30
3.8256e-30
3.8256e-30
3.8256e-30
3.82559e-30
3.82559e-30
3.82558e-30
3.82558e-30
3.82557e-30
3.82556e-30
3.82555e-30
3.82554e-30
3.82553e-30
3.82551e-30
3.8255e-30
3.82548e-30
3.82547e-30
3.82554e-30
3.82554e-30
3.82554e-30
3.82553e-30
3.82553e-30
3.82553e-30
3.82553e-30
3.82553e-30
3.82553e-30
3.82552e-30
3.82552e-30
3.82552e-30
3.82551e-30
3.82551e-30
3.8255e-30
3.82549e-30
3.82549e-30
3.82548e-30
3.82547e-30
3.82546e-30
3.8255e-30
3.8255e-30
3.8255e-30
3.8255e-30
3.8255e-30
3.8255e-30
3.8255e-30
3.8255e-30
3.82549e-30
3.82549e-30
3.82549e-30
3.82549e-30
3.82549e-30
3.82548e-30
3.82548e-30
3.82548e-30
3.82547e-30
3.82547e-30
3.82546e-30
3.82546e-30
3.82548e-30
3.82548e-30
3.82548e-30
3.82548e-30
3.82548e-30
3.82548e-30
3.82548e-30
3.82548e-30
3.82548e-30
3.82548e-30
3.82548e-30
3.82547e-30
3.82547e-30
3.82547e-30
3.82547e-30
3.82547e-30
3.82547e-30
3.82546e-30
3.82546e-30
3.82546e-30
3.82547e-30
3.82547e-30
3.82547e-30
3.82547e-30
3.82547e-30
3.82547e-30
3.82547e-30
3.82547e-30
3.82547e-30
3.82547e-30
3.82547e-30
3.82547e-30
3.82547e-30
3.82547e-30
3.82546e-30
3.82546e-30
3.82546e-30
3.82546e-30
3.82546e-30
3.82546e-30
3.82546e-30
3.82546e-30
3.82546e-30
3.82546e-30
3.82546e-30
3.82546e-30
3.82546e-30
3.82546e-30
3.82546e-30
3.82546e-30
3.82546e-30
3.82546e-30
3.82546e-30
3.82546e-30
3.82546e-30
3.82546e-30
3.82546e-30
3.82546e-30
3.82546e-30
3.82546e-30
3.82546e-30
3.82546e-30
3.82546e-30
3.82546e-30
3.82546e-30
3.82546e-30
3.82546e-30
3.82546e-30
3.82546e-30
3.82546e-30
3.82546e-30
3.82546e-30
3.82546e-30
3.82546e-30
3.82546e-30
3.82546e-30
3.82546e-30
3.82546e-30
3.82546e-30
3.82546e-30
3.82546e-30
3.82546e-30
3.82546e-30
3.82546e-30
3.82546e-30
3.82546e-30
3.82546e-30
3.82546e-30
3.82546e-30
3.82546e-30
3.82546e-30
3.82546e-30
3.82546e-30
3.82546e-30
3.82546e-30
3.82546e-30
3.82546e-30
3.82546e-30
3.82546e-30
3.82546e-30
3.82546e-30
3.82546e-30
3.82546e-30
3.82546e-30
3.82546e-30
3.82546e-30
3.82546e-30
3.82546e-30
3.82546e-30
3.82546e-30
3.82546e-30
3.82546e-30
3.82546e-30
3.82546e-30
3.82546e-30
3.82546e-30
3.82546e-30
3.82546e-30
3.82546e-30
3.82546e-30
3.82546e-30
3.82546e-30
3.82546e-30
3.82546e-30
3.82546e-30
3.82546e-30
3.82546e-30
3.82546e-30
3.82546e-30
3.82546e-30
3.82546e-30
3.82546e-30
3.82546e-30
3.82546e-30
3.82546e-30
3.82546e-30
3.82546e-30
3.82546e-30
3.82546e-30
3.82546e-30
3.82546e-30
3.82546e-30
3.82546e-30
3.82546e-30
3.82546e-30
3.82546e-30
3.82546e-30
3.82546e-30
3.82546e-30
3.82546e-30
3.82546e-30
3.82546e-30
3.82546e-30
3.82546e-30
3.82546e-30
3.82546e-30
3.82546e-30
3.82546e-30
3.82546e-30
3.82546e-30
3.82546e-30
3.82546e-30
3.82546e-30
3.82546e-30
3.82546e-30
3.82546e-30
3.82546e-30
3.82546e-30
3.82546e-30
3.82546e-30
3.82546e-30
3.82546e-30
3.82546e-30
3.82546e-30
3.82546e-30
3.82546e-30
3.82546e-30
3.82546e-30
3.82546e-30
3.82546e-30
3.82546e-30
3.82546e-30
3.82546e-30
3.82546e-30
3.82546e-30
3.82546e-30
3.82546e-30
3.82546e-30
3.82546e-30
3.82546e-30
3.82546e-30
3.82546e-30
3.82546e-30
3.82546e-30
3.82546e-30
3.82546e-30
3.82546e-30
3.82546e-30
3.82546e-30
3.82546e-30
3.82546e-30
3.82546e-30
3.82546e-30
3.82546e-30
3.82546e-30
3.82546e-30
3.82546e-30
3.82546e-30
3.82546e-30
3.82546e-30
3.82546e-30
3.82546e-30
3.82546e-30
3.82546e-30
3.82546e-30
3.82546e-30
3.82546e-30
3.82546e-30
3.82546e-30
3.82546e-30
3.82546e-30
3.82546e-30
3.82546e-30
3.82546e-30
3.82546e-30
3.82546e-30
3.82546e-30
3.82546e-30
3.82546e-30
3.82546e-30
3.82546e-30
3.82546e-30
3.82546e-30
3.82546e-30
3.82546e-30
3.82546e-30
3.82546e-30
3.82546e-30
3.82546e-30
3.82546e-30
3.82546e-30
3.82546e-30
3.82546e-30
3.82546e-30
3.82546e-30
3.82546e-30
3.82546e-30
3.82546e-30
3.82546e-30
3.82546e-30
3.82546e-30
3.82546e-30
3.82546e-30
3.82546e-30
3.82546e-30
3.82546e-30
3.82546e-30
3.82546e-30
3.82546e-30
3.82546e-30
)
;

boundaryField
{
    topWall
    {
        type            zeroGradient;
    }
    bottomWall
    {
        type            zeroGradient;
    }
    sideWallL
    {
        type            symmetry;
    }
    sideWallR
    {
        type            zeroGradient;
    }
    frontAndBack
    {
        type            empty;
    }
}


// ************************************************************************* //
