/*--------------------------------*- C++ -*----------------------------------*\
  =========                 |
  \\      /  F ield         | OpenFOAM: The Open Source CFD Toolbox
   \\    /   O peration     | Website:  https://openfoam.org
    \\  /    A nd           | Version:  7
     \\/     M anipulation  |
\*---------------------------------------------------------------------------*/
FoamFile
{
    version     2.0;
    format      ascii;
    class       volScalarField;
    location    "11";
    object      T;
}
// * * * * * * * * * * * * * * * * * * * * * * * * * * * * * * * * * * * * * //

dimensions      [0 0 0 1 0 0 0];

internalField   nonuniform List<scalar> 
900
(
370.767
370.766
370.764
370.76
370.754
370.744
370.73
370.708
370.674
370.621
370.541
370.416
370.219
369.901
369.374
368.452
366.707
362.975
353.516
324.54
350.534
350.531
350.525
350.514
350.496
350.47
350.428
350.365
350.269
350.122
349.896
349.548
349.005
348.147
346.76
344.452
340.463
333.256
319.701
294.119
333.933
333.928
333.919
333.902
333.875
333.833
333.77
333.673
333.527
333.305
332.969
332.457
331.673
330.465
328.583
325.619
320.901
313.354
301.464
283.861
320.429
320.424
320.411
320.39
320.356
320.304
320.224
320.105
319.925
319.655
319.251
318.646
317.742
316.388
314.362
311.335
306.847
300.314
291.182
279.428
309.548
309.542
309.528
309.504
309.465
309.407
309.319
309.186
308.99
308.699
308.27
307.641
306.722
305.386
303.461
300.719
296.888
291.697
285.016
277.103
300.868
300.862
300.847
300.821
300.782
300.721
300.631
300.496
300.299
300.01
299.592
298.99
298.131
296.918
295.23
292.922
289.849
285.907
281.115
275.725
294.018
294.011
293.997
293.972
293.933
293.874
293.787
293.658
293.472
293.204
292.82
292.28
291.525
290.487
289.086
287.236
284.868
281.953
278.55
274.846
288.673
288.666
288.653
288.629
288.593
288.539
288.458
288.342
288.175
287.937
287.603
287.141
286.508
285.659
284.543
283.112
281.336
279.219
276.819
274.263
284.551
284.545
284.533
284.512
284.479
284.431
284.361
284.259
284.116
283.914
283.635
283.255
282.745
282.074
281.212
280.135
278.831
277.314
275.631
273.867
281.411
281.406
281.395
281.377
281.349
281.308
281.249
281.164
281.044
280.879
280.654
280.352
279.953
279.439
278.791
277.997
277.056
275.982
274.81
273.595
279.05
279.046
279.037
279.022
278.998
278.964
278.916
278.847
278.751
278.62
278.444
278.21
277.907
277.522
277.046
276.471
275.802
275.05
274.24
273.407
277.298
277.294
277.287
277.274
277.256
277.228
277.19
277.135
277.061
276.96
276.825
276.649
276.424
276.143
275.799
275.39
274.921
274.4
273.844
273.277
276.014
276.011
276.005
275.995
275.981
275.96
275.93
275.888
275.831
275.755
275.655
275.526
275.362
275.16
274.916
274.63
274.305
273.948
273.571
273.187
275.086
275.084
275.08
275.072
275.061
275.045
275.022
274.991
274.949
274.893
274.82
274.727
274.611
274.468
274.298
274.101
273.879
273.637
273.382
273.125
274.425
274.424
274.42
274.415
274.406
274.395
274.378
274.355
274.325
274.284
274.232
274.167
274.085
273.986
273.87
273.736
273.586
273.424
273.254
273.083
273.961
273.96
273.957
273.953
273.947
273.939
273.927
273.91
273.889
273.86
273.824
273.778
273.722
273.655
273.576
273.486
273.386
273.279
273.167
273.055
273.639
273.639
273.637
273.634
273.629
273.623
273.615
273.603
273.588
273.569
273.544
273.513
273.475
273.43
273.377
273.318
273.252
273.182
273.109
273.035
273.42
273.419
273.418
273.416
273.413
273.408
273.403
273.395
273.384
273.371
273.354
273.334
273.308
273.278
273.244
273.205
273.162
273.117
273.07
273.023
273.272
273.271
273.27
273.269
273.267
273.264
273.26
273.255
273.248
273.239
273.228
273.214
273.198
273.178
273.156
273.131
273.103
273.074
273.044
273.014
273.174
273.173
273.173
273.172
273.17
273.168
273.166
273.162
273.158
273.152
273.145
273.136
273.125
273.113
273.098
273.082
273.065
273.047
273.028
273.009
273.109
273.109
273.109
273.108
273.107
273.106
273.104
273.102
273.099
273.095
273.091
273.085
273.078
273.07
273.061
273.051
273.04
273.029
273.017
273.006
273.068
273.068
273.068
273.067
273.067
273.066
273.065
273.063
273.061
273.059
273.056
273.052
273.048
273.043
273.038
273.032
273.025
273.018
273.011
273.003
273.042
273.042
273.041
273.041
273.041
273.04
273.04
273.039
273.037
273.036
273.034
273.032
273.029
273.026
273.023
273.019
273.015
273.011
273.006
273.002
273.025
273.025
273.025
273.025
273.025
273.024
273.024
273.023
273.023
273.022
273.021
273.019
273.018
273.016
273.014
273.011
273.009
273.006
273.004
273.001
273.015
273.015
273.015
273.015
273.015
273.014
273.014
273.014
273.013
273.013
273.012
273.011
273.01
273.009
273.008
273.007
273.005
273.004
273.002
273.001
273.009
273.009
273.009
273.009
273.009
273.009
273.008
273.008
273.008
273.008
273.007
273.007
273.006
273.005
273.005
273.004
273.003
273.002
273.001
273
273.005
273.005
273.005
273.005
273.005
273.005
273.005
273.005
273.005
273.004
273.004
273.004
273.004
273.003
273.003
273.002
273.002
273.001
273.001
273
273.003
273.003
273.003
273.003
273.003
273.003
273.003
273.003
273.003
273.002
273.002
273.002
273.002
273.002
273.002
273.001
273.001
273.001
273
273
273.002
273.002
273.002
273.002
273.002
273.002
273.002
273.002
273.001
273.001
273.001
273.001
273.001
273.001
273.001
273.001
273.001
273
273
273
273.001
273.001
273.001
273.001
273.001
273.001
273.001
273.001
273.001
273.001
273.001
273.001
273.001
273.001
273
273
273
273
273
273
273.001
273.001
273.001
273
273
273
273
273
273
273
273
273
273
273
273
273
273
273
273
273
273
273
273
273
273
273
273
273
273
273
273
273
273
273
273
273
273
273
273
273
273
273
273
273
273
273
273
273
273
273
273
273
273
273
273
273
273
273
273
273
273
273
273
273
273
273
273
273
273
273
273
273
273
273
273
273
273
273
273
273
273
273
273
273
273
273
273
273
273
273
273
273
273
273
273
273
273
273
273
273
273
273
273
273
273
273
273
273
273
273
273
273
273
273
273
273
273
273
273
273
273
273
273
273
273
273
273
273
273
273
273
273
273
273
273
273
273
273
273
273
273
273
273
273
273
273
273
273
273
273
273
273
273
273
273
273
273
273
273
273
273
273
273
273
273
273
273
273
273
273
273
273
273
273
273
273
273
273
273
273
273
273
273
273
273
273
273
273
273
273
273
273
273
273
273
273
273
273
273
273
273
273
273
273
273
273
273
273
273
273
273
273
273
273
273
273
273
273
273
273
273
273
273
273
273
273
273
273
273
273
273
273
273
273
273
273
273
273
273
273
273
273
273
273
273
273
273
273
273
273
273
273
273
273
273
273
273
273
273
273
273
273
273
273
273
273
273
273
273
273
273
273
273
273
273
273
273
273
273
273
273
273
273
273
273
273
273
273
273
273
273
273
273
273
273
273
273
273
273
273
)
;

boundaryField
{
    topWall
    {
        type            zeroGradient;
    }
    bottomWall
    {
        type            codedFixedValue;
        value           uniform 383;
        name            heating;
        code            #{
            const scalar t = this->db().time().value();
            const scalar Ttemp = 273 + 10*t;
            operator==(Ttemp);
        #};
    }
    sideWallL
    {
        type            symmetry;
    }
    sideWallR
    {
        type            fixedValue;
        value           uniform 273;
    }
    frontAndBack
    {
        type            empty;
    }
}


// ************************************************************************* //
