/*--------------------------------*- C++ -*----------------------------------*\
  =========                 |
  \\      /  F ield         | OpenFOAM: The Open Source CFD Toolbox
   \\    /   O peration     | Website:  https://openfoam.org
    \\  /    A nd           | Version:  7
     \\/     M anipulation  |
\*---------------------------------------------------------------------------*/
FoamFile
{
    version     2.0;
    format      ascii;
    class       volScalarField;
    location    "21";
    object      gradTy;
}
// * * * * * * * * * * * * * * * * * * * * * * * * * * * * * * * * * * * * * //

dimensions      [0 -1 0 1 0 0 0];

internalField   nonuniform List<scalar> 
900
(
-163848
-163930
-164100
-164375
-164778
-165344
-166128
-167203
-168679
-170713
-173539
-177511
-183191
-191496
-204019
-223715
-256556
-315902
-435126
-706520
-141397
-141471
-141627
-141876
-142240
-142751
-143453
-144410
-145711
-147483
-149906
-153243
-157877
-164369
-173540
-186503
-204387
-226471
-241250
-188014
-121647
-121710
-121843
-122054
-122360
-122786
-123365
-124142
-125177
-126553
-128375
-130776
-133911
-137931
-142877
-148390
-152903
-151599
-131915
-67429.2
-104272
-104322
-104426
-104590
-104826
-105148
-105577
-106138
-106861
-107779
-108925
-110312
-111910
-113574
-114904
-114954
-111699
-101178
-76797.9
-31274.4
-89006.3
-89041.5
-89113.8
-89226.7
-89385.4
-89596.5
-89867.3
-90204.2
-90610.2
-91078.6
-91582.8
-92056.4
-92356.8
-92201
-91057.3
-87977.5
-81383.9
-68945.9
-47998.1
-17507
-75623.2
-75643.4
-75684.2
-75746.1
-75829.2
-75932.7
-76053
-76181.7
-76300.9
-76376.5
-76346.6
-76102.3
-75458.3
-74108.8
-71567.7
-67103.7
-59712.5
-48236.5
-31836.9
-11030.5
-63927.7
-63934
-63945.7
-63960.8
-63975.5
-63983.1
-63972.3
-63924.4
-63808.7
-63576
-63148.9
-62407.1
-61168.5
-59165
-56020.1
-51241.4
-44261.6
-34582.8
-22082.6
-7462.34
-53748.1
-53742.3
-53728.9
-53704.2
-53661.5
-53590.4
-53474.8
-53290.2
-52999.9
-52550
-51861.9
-50823.3
-49277.7
-47016
-43773.6
-39247.2
-33145.7
-25297.7
-15817
-5274.84
-44929.9
-44914.4
-44881.1
-44825
-44738.1
-44607.8
-44415.8
-44135.7
-43730.1
-43147.2
-42315.6
-41140.1
-39497.5
-37236
-34182.1
-30161.5
-25041
-18795.3
-11589
-3835.2
-37332.3
-37309.7
-37261.8
-37183.4
-37065.6
-36895.4
-36654.2
-36316.6
-35847.7
-35201.5
-34317.8
-33121.2
-31520
-29409.9
-26683
-23246
-19049.3
-14125.5
-8626.78
-2840.98
-30825.3
-30798
-30740.9
-30648.5
-30512.2
-30319.5
-30053
-29689.7
-29199.1
-28542.6
-27672.3
-26530.8
-25053
-23170.2
-20818.5
-17952.5
-14564
-10702.6
-6491.94
-2130.87
-25287.9
-25258.2
-25196.5
-25097.5
-24953.3
-24752.7
-24480.1
-24115.7
-23634.2
-23004.6
-22190
-21148.5
-19835.4
-18207.1
-16227.8
-13879.1
-11171.1
-8153.27
-4920.81
-1611.36
-20607.6
-20577.4
-20514.8
-20415.2
-20271.6
-20074.2
-19809.8
-19462
-19010.5
-18431.2
-17696.7
-16777.1
-15642.7
-14266.8
-12630.9
-10730.8
-8583.3
-6231.45
-3746.63
-1224.71
-16679.6
-16650.3
-16589.8
-16494.1
-16357.3
-16171.1
-15924.8
-15605.1
-15196.2
-14679.9
-14036.3
-13244.7
-12285.8
-11144.1
-9811.12
-8289.71
-6597.56
-4769.83
-2859.38
-933.419
-13407.1
-13379.7
-13323.3
-13234.6
-13108.7
-12938.9
-12716.6
-12431.4
-12071.2
-11622.7
-11071.6
-10404.1
-9607.87
-8674.37
-7600.94
-6393.28
-5067.52
-3651.41
-2183.79
-712.118
-10701
-10676.2
-10625.2
-10545.4
-10432.8
-10282.1
-10086.6
-9838.42
-9528.45
-9147.02
-8684.23
-8130.87
-7479.5
-6725.79
-5870.09
-4918.84
-3885.77
-2792.27
-1666.81
-543.066
-8480.47
-8458.52
-8413.57
-8343.53
-8245.27
-8114.65
-7946.55
-7735.01
-7473.43
-7154.89
-6772.62
-6320.66
-5794.65
-5192.79
-4516.82
-3772.89
-2972.18
-2130.98
-1270.09
-413.517
-6672.38
-6653.42
-6614.67
-6554.52
-6470.55
-6359.6
-6217.83
-6040.83
-5823.85
-5562.04
-5250.85
-4886.51
-4466.62
-3990.78
-3461.25
-2883.43
-2266.17
-1621.75
-965.339
-314.109
-5211.7
-5195.63
-5162.88
-5112.2
-5041.77
-4949.21
-4831.68
-4685.98
-4508.73
-4296.6
-4046.56
-3756.32
-3424.66
-3051.93
-2640.39
-2194.57
-1721.36
-1229.92
-731.313
-237.841
-4040.98
-4027.62
-4000.42
-3958.45
-3900.36
-3824.38
-3728.45
-3610.27
-3467.49
-3297.81
-3099.31
-2870.6
-2611.2
-2321.77
-2004.37
-1662.67
-1301.94
-928.995
-551.878
-179.407
-3110.15
-3099.21
-3076.98
-3042.77
-2995.57
-2934.13
-2856.93
-2762.37
-2648.81
-2514.71
-2358.86
-2180.48
-1979.47
-1756.6
-1513.63
-1253.46
-980.082
-698.532
-414.644
-134.745
-2375.96
-2367.14
-2349.24
-2321.75
-2283.95
-2234.93
-2173.63
-2098.91
-2009.66
-1904.87
-1783.78
-1645.99
-1491.61
-1321.38
-1136.75
-939.974
-734.043
-522.655
-310.035
-100.718
-1801.54
-1794.52
-1780.3
-1758.51
-1728.64
-1690.03
-1641.94
-1583.59
-1514.23
-1433.2
-1340.05
-1234.61
-1117.06
-988.069
-848.799
-700.963
-546.795
-388.996
-230.614
-74.8965
-1355.74
-1350.23
-1339.07
-1322.02
-1298.7
-1268.66
-1231.37
-1186.31
-1132.98
-1070.96
-999.99
-920.016
-831.263
-734.284
-629.991
-519.677
-404.993
-287.9
-170.593
-55.3899
-1012.56
-1008.28
-999.644
-986.457
-968.465
-945.349
-916.758
-882.332
-841.744
-794.733
-741.158
-681.033
-614.572
-542.224
-464.693
-382.942
-298.182
-211.831
-125.463
-40.7277
-750.517
-747.242
-740.627
-730.545
-716.818
-699.228
-677.536
-651.502
-620.914
-585.616
-545.535
-500.718
-451.353
-397.796
-340.58
-280.417
-218.187
-154.913
-91.7151
-29.7669
-552.06
-549.578
-544.568
-536.945
-526.585
-513.339
-497.049
-477.555
-454.724
-428.461
-398.74
-365.614
-329.242
-289.899
-247.984
-204.018
-158.639
-112.576
-66.6264
-21.6205
-402.98
-401.119
-397.367
-391.662
-383.924
-374.051
-361.937
-347.481
-330.597
-311.233
-289.383
-265.102
-238.516
-209.836
-179.356
-147.455
-114.59
-81.2798
-48.0895
-15.6028
-291.906
-290.525
-287.742
-283.518
-277.795
-270.509
-261.588
-250.967
-238.594
-224.442
-208.515
-190.863
-171.585
-150.838
-128.837
-105.856
-82.2192
-58.2954
-34.4812
-11.1861
-209.823
-208.809
-206.766
-203.668
-199.478
-194.151
-187.643
-179.911
-170.926
-160.672
-149.16
-136.432
-122.563
-107.67
-91.907
-75.4709
-58.5916
-41.5278
-24.5573
-7.96567
-149.66
-148.922
-147.437
-145.187
-142.148
-138.291
-133.586
-128.009
-121.54
-114.174
-105.923
-96.8193
-86.9204
-76.3106
-65.1019
-53.4326
-41.4648
-29.3793
-17.3695
-5.63356
-105.923
-105.391
-104.322
-102.704
-100.52
-97.7524
-94.3824
-90.3942
-85.7776
-80.5312
-74.6659
-68.207
-61.1972
-53.6971
-45.7864
-37.5623
-29.1381
-20.6394
-12.1999
-3.95649
-74.3873
-74.008
-73.2454
-72.0919
-70.5372
-68.5693
-66.1768
-63.3499
-60.0833
-56.3779
-52.2426
-47.697
-42.772
-37.511
-31.9699
-26.2168
-20.3301
-14.3966
-8.50828
-2.75904
-51.835
-51.5668
-51.0279
-50.2133
-49.1163
-47.7296
-46.0459
-44.0595
-41.7677
-39.1723
-36.2807
-33.1072
-29.6741
-26.0121
-22.1602
-18.1657
-14.0824
-9.96997
-5.89122
-1.91024
-35.8386
-35.6507
-35.2732
-34.7031
-33.936
-32.9674
-31.7928
-30.4089
-28.8147
-27.0118
-25.0062
-22.8084
-20.4341
-17.9048
-15.2476
-12.4949
-9.68359
-6.85423
-4.04955
-1.31298
-24.5844
-24.454
-24.192
-23.7965
-23.2649
-22.5942
-21.7818
-20.826
-19.7262
-18.4843
-17.1046
-15.5946
-13.9655
-12.2322
-10.4132
-8.53064
-6.60959
-4.67747
-2.76313
-0.895828
-16.7304
-16.6407
-16.4605
-16.1886
-15.8234
-15.363
-14.8061
-14.1515
-13.3992
-12.5508
-11.6094
-10.5805
-9.47166
-8.29317
-7.05767
-5.78012
-4.47742
-3.16801
-1.87122
-0.606629
-11.2924
-11.2312
-11.1084
-10.9232
-10.6745
-10.3614
-9.98291
-9.53852
-9.02844
-8.45379
-7.81692
-7.12157
-6.37305
-5.5783
-4.74587
-3.88579
-3.00939
-2.12895
-1.25735
-0.407598
-7.55521
-7.51388
-7.43097
-7.30599
-7.13833
-6.92735
-6.67254
-6.37367
-6.03095
-5.64527
-5.21826
-4.75253
-4.25168
-3.72038
-3.16435
-2.59028
-2.00568
-1.41868
-0.837784
-0.271574
-5.00332
-4.97572
-4.92036
-4.83696
-4.72514
-4.58453
-4.41483
-4.21597
-3.98814
-3.732
-3.44868
-3.13996
-2.80825
-2.45667
-2.089
-1.70966
-1.32357
-0.93608
-0.552739
-0.179167
-3.26771
-3.24954
-3.21313
-3.15828
-3.08479
-2.99242
-2.88104
-2.75061
-2.60131
-2.43359
-2.24824
-2.04644
-1.82978
-1.60032
-1.36052
-1.11325
-0.861714
-0.609362
-0.359789
-0.116619
-2.08517
-2.07351
-2.05012
-2.01492
-1.96776
-1.90853
-1.83714
-1.7536
-1.65805
-1.55079
-1.43235
-1.30348
-1.16522
-1.01889
-0.866047
-0.70853
-0.548366
-0.387737
-0.228918
-0.074197
-1.26749
-1.26037
-1.24608
-1.22457
-1.19578
-1.15963
-1.11608
-1.06515
-1.00693
-0.941614
-0.86953
-0.791149
-0.707105
-0.618197
-0.525384
-0.429769
-0.332582
-0.235142
-0.138818
-0.0449927
-0.677887
-0.67406
-0.666391
-0.654849
-0.639399
-0.620009
-0.59666
-0.569363
-0.538171
-0.503194
-0.464608
-0.42267
-0.377721
-0.330188
-0.280584
-0.229498
-0.177586
-0.125549
-0.0741161
-0.0240215
-0.212791
-0.211587
-0.209175
-0.205545
-0.200687
-0.194591
-0.187252
-0.178674
-0.168874
-0.157887
-0.145769
-0.132602
-0.118492
-0.103574
-0.088009
-0.0719817
-0.0556971
-0.0393752
-0.0232442
-0.0075335
)
;

boundaryField
{
    topWall
    {
        type            calculated;
        value           uniform 0;
    }
    bottomWall
    {
        type            calculated;
        value           nonuniform List<scalar> 
20
(
-175793
-175878
-176054
-176338
-176754
-177340
-178152
-179269
-180805
-182928
-185889
-190076
-196109
-205038
-218767
-241113
-280796
-361190
-556158
-1.13107e+06
)
;
    }
    sideWallL
    {
        type            symmetry;
    }
    sideWallR
    {
        type            calculated;
        value           nonuniform List<scalar> 
45
(
-706520
-188014
-67429.2
-31274.4
-17507
-11030.5
-7462.34
-5274.84
-3835.2
-2840.98
-2130.87
-1611.36
-1224.71
-933.419
-712.118
-543.066
-413.517
-314.109
-237.841
-179.407
-134.745
-100.718
-74.8965
-55.3899
-40.7277
-29.7669
-21.6205
-15.6028
-11.1861
-7.96567
-5.63356
-3.95649
-2.75904
-1.91024
-1.31298
-0.895828
-0.606629
-0.407598
-0.271574
-0.179167
-0.116619
-0.074197
-0.0449927
-0.0240215
-0.0075335
)
;
    }
    frontAndBack
    {
        type            empty;
    }
}


// ************************************************************************* //
