/*--------------------------------*- C++ -*----------------------------------*\
  =========                 |
  \\      /  F ield         | OpenFOAM: The Open Source CFD Toolbox
   \\    /   O peration     | Website:  https://openfoam.org
    \\  /    A nd           | Version:  7
     \\/     M anipulation  |
\*---------------------------------------------------------------------------*/
FoamFile
{
    version     2.0;
    format      ascii;
    class       volScalarField;
    location    "21";
    object      gradTx;
}
// * * * * * * * * * * * * * * * * * * * * * * * * * * * * * * * * * * * * * //

dimensions      [0 -1 0 1 0 0 0];

internalField   nonuniform List<scalar> 
900
(
-21.1233
-65.2055
-114.988
-174.948
-250.689
-349.652
-482.173
-663.132
-914.694
-1271.04
-1787.02
-2555.04
-3740.56
-5664.55
-9018.8
-15507
-30019.1
-68840.5
-192469
-628194
-60.7557
-187.489
-330.427
-502.245
-718.736
-1000.74
-1376.95
-1888.3
-2594.97
-3588.25
-5011.34
-7097.58
-10244.4
-15163.3
-23199.4
-37030
-62167.9
-109729
-198149
-330161
-95.7365
-295.267
-519.766
-788.633
-1125.81
-1562.52
-2141.13
-2921.01
-3987.49
-5466.37
-7547.6
-10525.4
-14866.5
-21328
-31151.9
-46353.6
-69988.1
-105703
-154012
-198930
-124.45
-383.511
-673.992
-1020.07
-1451.21
-2005.17
-2732.18
-3700.86
-5006.95
-6786.21
-9233.9
-12633.7
-17399.3
-24128.6
-33658
-47055.7
-65377.4
-88741.7
-113979
-130816
-145.882
-449.102
-787.651
-1188.4
-1683.55
-2313.53
-3130.8
-4204.85
-5629.13
-7530.25
-10080.1
-13510.7
-18128.7
-24321.7
-32532.3
-43148.8
-56211.7
-70802.7
-84108.5
-90857.5
-159.683
-491.013
-859.135
-1291.65
-1821.04
-2487.09
-3339.94
-4443.76
-5881.26
-7758.82
-10211.7
-13407.7
-17543.8
-22829.2
-29434.5
-37382.2
-46345.8
-55355.9
-62540.4
-65311.1
-166.12
-510.154
-890.342
-1333.41
-1870.16
-2537.34
-3379.8
-4452.72
-5823.99
-7575.97
-9805.85
-12622.4
-16135.3
-20431.1
-25527.1
-31293.5
-37344.5
-42927.1
-46902.5
-47990.1
-165.963
-508.985
-885.915
-1321.43
-1843.35
-2483.95
-3281.25
-4280.09
-5532.86
-7099.04
-9042.87
-11427.3
-14301.7
-17680.9
-21510.9
-25623.7
-29687.2
-33176.9
-35419.9
-35766.1
-160.317
-490.994
-852.257
-1266.01
-1756.41
-2350.62
-3079.5
-3977.81
-5083.88
-6438
-8079.07
-10038.2
-12328
-14927
-17758.3
-20665.6
-23395
-25598.4
-26879.7
-26898.3
-150.459
-460.169
-796.565
-1178.46
-1626.1
-2161.61
-2809.11
-3594.47
-4544.4
-5684.48
-7035.74
-8609.15
-10397.6
-12365.5
-14436.4
-16482.6
-18320.9
-19724.9
-20459.8
-20341.9
-137.684
-420.529
-725.994
-1069.77
-1468.37
-1939.26
-2500.71
-3171.29
-3968.75
-4908.14
-5998.85
-7240.35
-8616.69
-10090
-11594.4
-13031.9
-14274.4
-15175.8
-15595.1
-15430.6
-123.194
-375.779
-647.055
-949.789
-1297.11
-1702.45
-2179.29
-2740.5
-3397.31
-4157.68
-5023.97
-5989.9
-7037.01
-8130.99
-9218.79
-10228.1
-11071
-11652.8
-11888.1
-11719.1
-108.019
-329.08
-565.239
-826.655
-1123.54
-1466.01
-1863.74
-2325.38
-2857.63
-3463.94
-4142.83
-4885.82
-5675.25
-6482.4
-7266.43
-7975.17
-8548.6
-8925.51
-9053.24
-8898.4
-92.9852
-282.942
-484.851
-706.636
-956.087
-1240.67
-1567.17
-1941.22
-2366.51
-2843.82
-3369.86
-3935.92
-4526.66
-5119.15
-5682.82
-6180.57
-6571.61
-6816.15
-6881.38
-6747.73
-78.7015
-239.211
-409.01
-594.17
-800.531
-1033.5
-1297.76
-1596.81
-1932.44
-2304.01
-2707.63
-3135.38
-3574.63
-4007.68
-4412.06
-4761.62
-5028.72
-5187.33
-5216.82
-5105.6
-65.5784
-199.116
-339.753
-492.069
-660.372
-848.518
-1059.66
-1295.89
-1557.85
-1844.24
-2151.25
-2472.15
-2796.93
-3112.22
-3401.73
-3647.15
-3829.74
-3932.42
-3942.09
-3851.82
-53.8535
-163.357
-278.204
-401.797
-537.269
-687.328
-854.05
-1038.62
-1241.04
-1459.79
-1691.49
-1930.65
-2169.55
-2398.27
-2605.1
-2777.3
-2902.15
-2968.38
-2967.62
-2895.72
-43.6255
-132.213
-224.766
-323.777
-431.496
-549.796
-680.016
-822.77
-977.733
-1143.43
-1317.02
-1494.18
-1669.06
-1834.38
-1981.82
-2102.51
-2187.84
-2230.33
-2224.62
-2168.21
-34.8882
-105.646
-179.307
-257.677
-342.348
-434.601
-535.277
-644.644
-762.251
-886.785
-1015.95
-1146.42
-1273.83
-1392.9
-1497.75
-1582.22
-1640.47
-1667.55
-1659.98
-1616.27
-27.5626
-83.399
-141.336
-202.664
-268.499
-339.702
-416.788
-499.828
-588.351
-681.255
-776.739
-872.281
-964.668
-1050.12
-1124.47
-1183.48
-1223.18
-1240.29
-1232.55
-1199.05
-21.5236
-65.0806
-110.14
-157.613
-208.273
-262.691
-321.172
-383.684
-449.792
-518.605
-588.74
-658.315
-724.995
-786.077
-838.648
-879.784
-906.794
-917.484
-910.394
-884.988
-16.6219
-50.227
-84.8945
-121.262
-159.858
-201.058
-245.033
-291.703
-340.695
-391.31
-442.503
-492.89
-540.786
-584.277
-621.328
-649.929
-668.258
-674.851
-668.76
-649.666
-12.7
-38.3532
-64.75
-92.3314
-121.456
-152.365
-185.148
-219.712
-255.75
-292.726
-329.861
-366.149
-400.386
-431.221
-457.243
-477.072
-489.475
-493.476
-488.458
-474.235
-9.60377
-28.9871
-48.8856
-69.6013
-91.3745
-114.358
-138.594
-163.992
-190.308
-217.137
-243.909
-269.897
-294.247
-316.015
-334.222
-347.925
-356.291
-358.67
-354.66
-344.156
-7.19013
-21.6912
-36.5457
-51.9586
-68.089
-85.0324
-102.804
-121.322
-140.4
-159.736
-178.916
-197.423
-214.653
-229.949
-242.637
-252.074
-257.698
-259.076
-255.947
-248.252
-5.331
-16.0753
-27.0597
-38.422
-50.2665
-62.6515
-75.5775
-88.9774
-102.709
-116.552
-130.208
-143.311
-155.438
-166.136
-174.94
-181.414
-185.181
-185.951
-183.557
-177.965
-3.91527
-11.8013
-19.8491
-28.1502
-36.7722
-45.7499
-55.0772
-64.7003
-74.5134
-84.3568
-94.0187
-103.241
-111.732
-119.176
-125.257
-129.682
-132.194
-132.604
-130.801
-126.77
-2.84897
-8.58403
-14.427
-20.4382
-26.661
-33.1155
-39.7932
-46.6523
-53.6152
-60.5676
-67.3602
-73.8132
-79.7239
-84.8773
-89.0589
-92.069
-93.7377
-93.9389
-92.6018
-89.7182
-2.05431
-6.18751
-10.392
-14.7073
-19.1608
-23.7637
-28.5072
-33.3598
-38.2653
-43.1426
-47.8873
-52.375
-56.4665
-60.0153
-62.8762
-64.9149
-66.0185
-66.1035
-65.1243
-63.0776
-1.46812
-4.42052
-7.41966
-10.491
-13.6518
-16.9079
-20.2514
-23.659
-27.0903
-30.4886
-33.7815
-36.8832
-39.6989
-42.1292
-44.0765
-45.4509
-46.1773
-46.2009
-45.4925
-44.0509
-1.04001
-3.13056
-5.25147
-7.41906
-9.64393
-11.9289
-14.2675
-16.6426
-19.0257
-21.3773
-23.6475
-25.7779
-27.704
-29.3591
-30.6775
-31.5995
-32.0753
-32.0692
-31.5622
-30.5547
-0.73038
-2.19793
-3.68502
-5.20202
-6.75535
-8.34619
-9.96935
-11.6125
-13.2558
-14.8718
-16.4266
-17.8806
-19.1902
-20.3107
-21.1985
-21.8138
-22.124
-22.1056
-21.7467
-21.0478
-0.508554
-1.53001
-2.56393
-3.61683
-4.69255
-5.79139
-6.90937
-8.03773
-9.16269
-10.2656
-11.3233
-12.3092
-13.1941
-13.9483
-14.5427
-14.9512
-15.1524
-15.131
-14.8794
-14.3983
-0.351113
-1.05609
-1.76896
-2.49376
-3.23275
-3.9858
-4.74995
-5.51906
-6.28367
-7.0311
-7.7458
-8.40993
-9.00413
-9.50863
-9.90433
-10.1741
-10.3038
-10.2838
-10.1091
-9.78049
-0.240391
-0.722905
-1.21036
-1.70525
-2.20887
-2.72092
-3.23926
-3.75961
-4.27554
-4.77852
-5.25816
-5.70259
-6.09903
-6.43443
-6.6963
-6.87342
-6.95669
-6.93977
-6.81962
-6.59682
-0.163229
-0.490765
-0.821374
-1.15656
-1.49706
-1.84255
-2.19149
-2.54093
-2.88656
-3.22266
-3.54235
-3.83778
-4.10056
-4.32216
-4.49441
-4.61005
-4.66319
-4.64976
-4.56787
-4.41796
-0.109937
-0.330477
-0.552908
-0.778136
-1.00656
-1.23788
-1.47102
-1.70397
-1.93385
-2.15687
-2.36849
-2.56357
-2.73663
-2.88211
-2.99473
-3.0698
-3.10352
-3.09331
-3.03798
-2.93787
-0.0734634
-0.220798
-0.369286
-0.519464
-0.671538
-0.82527
-0.979899
-1.13409
-1.28591
-1.43288
-1.57203
-1.7
-1.81324
-1.90816
-1.98136
-2.0298
-2.05108
-2.04356
-2.00648
-1.94011
-0.0487331
-0.146447
-0.244856
-0.344278
-0.44481
-0.546268
-0.64813
-0.749502
-0.849118
-0.94535
-1.03627
-1.1197
-1.19336
-1.25493
-1.30223
-1.33332
-1.34668
-1.34127
-1.31662
-1.27292
-0.0321355
-0.0965552
-0.161392
-0.226827
-0.292904
-0.359485
-0.426213
-0.492498
-0.55751
-0.620191
-0.679292
-0.733416
-0.78109
-0.820836
-0.851259
-0.871134
-0.879485
-0.875657
-0.859373
-0.830756
-0.0211344
-0.063492
-0.106097
-0.149053
-0.192375
-0.235961
-0.279571
-0.322814
-0.365148
-0.405888
-0.444228
-0.47927
-0.510068
-0.53568
-0.555215
-0.567897
-0.573106
-0.570433
-0.559706
-0.541011
-0.0139753
-0.0419787
-0.0701288
-0.0984836
-0.127044
-0.155736
-0.184397
-0.212767
-0.240492
-0.267124
-0.292139
-0.314958
-0.334972
-0.351573
-0.364192
-0.372331
-0.375598
-0.373732
-0.366629
-0.354348
-0.00947071
-0.0284441
-0.0475056
-0.0666876
-0.0859849
-0.105343
-0.124649
-0.143727
-0.162337
-0.180182
-0.196912
-0.212144
-0.225475
-0.236505
-0.244861
-0.250215
-0.252313
-0.250985
-0.246166
-0.237896
-0.00684779
-0.020564
-0.0343363
-0.0481836
-0.0620985
-0.0760385
-0.0899203
-0.103616
-0.116955
-0.129723
-0.141674
-0.152534
-0.16202
-0.169851
-0.175764
-0.179529
-0.18097
-0.179969
-0.17648
-0.170537
-0.00564425
-0.0169483
-0.0282945
-0.039696
-0.0511444
-0.0626032
-0.0740029
-0.0852382
-0.0961681
-0.106619
-0.116389
-0.125257
-0.132993
-0.139368
-0.144171
-0.147218
-0.148363
-0.147516
-0.144638
-0.139759
)
;

boundaryField
{
    topWall
    {
        type            calculated;
        value           nonuniform List<scalar> 
20
(
-0.00564425
-0.0169483
-0.0282945
-0.039696
-0.0511444
-0.0626032
-0.0740029
-0.0852382
-0.0961681
-0.106619
-0.116389
-0.125257
-0.132993
-0.139368
-0.144171
-0.147218
-0.148363
-0.147516
-0.144638
-0.139759
)
;
    }
    bottomWall
    {
        type            calculated;
        value           nonuniform List<scalar> 
20
(
-21.1233
-65.2055
-114.988
-174.948
-250.689
-349.652
-482.173
-663.132
-914.694
-1271.04
-1787.02
-2555.04
-3740.56
-5664.55
-9018.8
-15507
-30019.1
-68840.5
-192469
-628194
)
;
    }
    sideWallL
    {
        type            symmetry;
    }
    sideWallR
    {
        type            calculated;
        value           nonuniform List<scalar> 
45
(
-968933
-404987
-216876
-135270
-91778.5
-65242.2
-47656.4
-35392.8
-26557.1
-20052.1
-15193.1
-11528.6
-8747.7
-6629.75
-5014.03
-3781.28
-2841.76
-2127.21
-1585.33
-1175.85
-867.701
-636.872
-464.828
-337.286
-243.268
-174.375
-124.201
-87.8928
-61.7896
-43.1485
-29.927
-20.6143
-14.101
-9.57813
-6.46007
-4.32621
-2.87676
-1.8997
-1.24637
-0.813406
-0.5297
-0.346931
-0.232912
-0.16696
-0.136826
)
;
    }
    frontAndBack
    {
        type            empty;
    }
}


// ************************************************************************* //
