/*--------------------------------*- C++ -*----------------------------------*\
  =========                 |
  \\      /  F ield         | OpenFOAM: The Open Source CFD Toolbox
   \\    /   O peration     | Website:  https://openfoam.org
    \\  /    A nd           | Version:  7
     \\/     M anipulation  |
\*---------------------------------------------------------------------------*/
FoamFile
{
    version     2.0;
    format      ascii;
    class       volScalarField;
    location    "21";
    object      rhoc;
}
// * * * * * * * * * * * * * * * * * * * * * * * * * * * * * * * * * * * * * //

dimensions      [1 -3 0 0 0 0 0];

internalField   nonuniform List<scalar> 
900
(
1.21415e-11
1.21281e-11
1.21003e-11
1.20555e-11
1.19896e-11
1.18968e-11
1.17687e-11
1.15934e-11
1.13548e-11
1.10304e-11
1.05899e-11
9.99203e-12
9.18273e-12
8.09437e-12
6.65371e-12
4.81699e-12
2.68739e-12
7.96378e-13
3.47411e-14
6.00109e-19
1.00398e-13
1.00037e-13
9.92859e-14
9.80863e-14
9.63448e-14
9.39306e-14
9.06707e-14
8.63486e-14
8.07089e-14
7.34804e-14
6.44289e-14
5.34684e-14
4.08537e-14
2.74541e-14
1.49778e-14
5.71177e-15
1.12565e-15
5.89886e-17
1.66554e-19
4.67441e-25
9.57257e-16
9.51168e-16
9.38568e-16
9.1861e-16
8.90025e-16
8.51144e-16
7.99998e-16
7.34547e-16
6.53151e-16
5.55389e-16
4.43339e-16
3.2313e-16
2.06055e-16
1.07437e-16
4.09854e-17
9.4666e-18
9.48191e-19
2.25781e-20
4.47003e-23
2.106e-27
1.11881e-17
1.10856e-17
1.08747e-17
1.05438e-17
1.00766e-17
9.4537e-18
8.65628e-18
7.67228e-18
6.50619e-18
5.19238e-18
3.80854e-18
2.4806e-18
1.36363e-18
5.86217e-19
1.75447e-19
3.05675e-20
2.35842e-21
5.41402e-23
2.31515e-25
2.09771e-28
1.69552e-19
1.67562e-19
1.6349e-19
1.57161e-19
1.48347e-19
1.36821e-19
1.2244e-19
1.0528e-19
8.5812e-20
6.5069e-20
4.47172e-20
2.68509e-20
1.33804e-20
5.14582e-21
1.37916e-21
2.23854e-22
1.83292e-23
6.18649e-25
7.8484e-27
6.63914e-29
3.497e-21
3.44859e-21
3.35e-21
3.19806e-21
2.98911e-21
2.72038e-21
2.39235e-21
2.01174e-21
1.59472e-21
1.16899e-21
7.72167e-22
4.43903e-22
2.12033e-22
7.91651e-23
2.13645e-23
3.79137e-24
4.00543e-25
2.3656e-26
8.63181e-28
3.47139e-29
1.02008e-22
1.00447e-22
9.72826e-23
9.24398e-23
8.58449e-23
7.74745e-23
6.74253e-23
5.59986e-23
4.37744e-23
3.16289e-23
2.06328e-23
1.17912e-23
5.68364e-24
2.20659e-24
6.54397e-25
1.40509e-25
2.10465e-26
2.24541e-27
2.02056e-28
2.33561e-29
4.32417e-24
4.25508e-24
4.11538e-24
3.90266e-24
3.61498e-24
3.25307e-24
2.82309e-24
2.33989e-24
1.82924e-24
1.32757e-24
8.76931e-25
5.1469e-25
2.60934e-25
1.10755e-25
3.81703e-26
1.04494e-26
2.28049e-27
4.21551e-28
7.74262e-29
1.80941e-29
2.70637e-25
2.66347e-25
2.57687e-25
2.44541e-25
2.2683e-25
2.04644e-25
1.78401e-25
1.49013e-25
1.17996e-25
8.7437e-26
5.97034e-26
3.69076e-26
2.02679e-26
9.7092e-27
4.00426e-27
1.42115e-27
4.45005e-28
1.31369e-28
4.09424e-29
1.526e-29
2.5161e-26
2.47848e-26
2.40259e-26
2.28748e-26
2.13253e-26
1.93848e-26
1.70869e-26
1.4504e-26
1.17566e-26
9.01085e-27
6.45841e-27
4.27855e-27
2.59123e-27
1.4232e-27
7.07954e-28
3.2244e-28
1.38486e-28
5.90546e-29
2.67103e-29
1.35819e-29
3.4701e-27
3.42369e-27
3.33006e-27
3.18793e-27
2.99629e-27
2.75552e-27
2.46879e-27
2.14351e-27
1.79242e-27
1.43364e-27
1.08896e-27
7.80252e-28
5.24722e-28
3.30715e-28
1.96237e-28
1.1109e-28
6.14344e-29
3.4285e-29
1.99934e-29
1.25244e-29
7.03892e-28
6.95954e-28
6.79921e-28
6.55531e-28
6.22529e-28
5.80833e-28
5.30744e-28
4.73186e-28
4.09891e-28
3.43472e-28
2.77265e-28
2.14912e-28
1.59715e-28
1.13971e-28
7.85312e-29
5.28089e-29
3.51969e-29
2.36852e-29
1.63891e-29
1.18294e-29
2.05623e-28
2.03784e-28
2.00064e-28
1.9439e-28
1.86676e-28
1.76864e-28
1.64958e-28
1.51081e-28
1.35515e-28
1.18736e-28
1.01397e-28
8.42797e-29
6.81841e-29
5.37985e-29
4.15827e-29
3.1708e-29
2.40743e-29
1.83903e-29
1.42778e-29
1.13593e-29
8.30146e-29
8.24573e-29
8.13281e-29
7.96004e-29
7.72413e-29
7.42198e-29
7.0518e-29
6.61449e-29
6.11499e-29
5.56338e-29
4.97525e-29
4.37104e-29
3.77405e-29
3.20749e-29
2.69117e-29
2.23881e-29
1.85679e-29
1.54456e-29
1.29637e-29
1.10349e-29
4.36141e-29
4.34025e-29
4.29733e-29
4.23149e-29
4.14125e-29
4.02499e-29
3.88141e-29
3.70991e-29
3.51108e-29
3.2872e-29
3.04252e-29
2.78324e-29
2.51722e-29
2.25318e-29
1.99978e-29
1.76449e-29
1.55287e-29
1.36809e-29
1.21107e-29
1.0808e-29
2.79145e-29
2.78186e-29
2.76236e-29
2.73242e-29
2.69125e-29
2.638e-29
2.57184e-29
2.49216e-29
2.39877e-29
2.29211e-29
2.17339e-29
2.04473e-29
1.90909e-29
1.77007e-29
1.63165e-29
1.49775e-29
1.37186e-29
1.25669e-29
1.15405e-29
1.06479e-29
2.0542e-29
2.04922e-29
2.0391e-29
2.02353e-29
2.0021e-29
1.97431e-29
1.93964e-29
1.89767e-29
1.84811e-29
1.79095e-29
1.72653e-29
1.65562e-29
1.57944e-29
1.49961e-29
1.41806e-29
1.3369e-29
1.25819e-29
1.18377e-29
1.11516e-29
1.05343e-29
1.66356e-29
1.6607e-29
1.65491e-29
1.646e-29
1.63372e-29
1.61777e-29
1.59784e-29
1.57363e-29
1.54492e-29
1.5116e-29
1.47374e-29
1.43164e-29
1.38584e-29
1.33711e-29
1.28647e-29
1.23506e-29
1.18412e-29
1.13483e-29
1.08827e-29
1.04534e-29
1.43784e-29
1.43609e-29
1.43253e-29
1.42707e-29
1.41953e-29
1.40975e-29
1.39751e-29
1.38262e-29
1.36493e-29
1.34432e-29
1.32079e-29
1.29446e-29
1.26558e-29
1.23455e-29
1.20193e-29
1.16837e-29
1.13461e-29
1.10141e-29
1.06952e-29
1.03958e-29
1.29918e-29
1.29805e-29
1.29576e-29
1.29224e-29
1.28739e-29
1.2811e-29
1.27323e-29
1.26366e-29
1.25228e-29
1.239e-29
1.2238e-29
1.20673e-29
1.18792e-29
1.16758e-29
1.14603e-29
1.12366e-29
1.10094e-29
1.07835e-29
1.05637e-29
1.03548e-29
1.21027e-29
1.20952e-29
1.20799e-29
1.20565e-29
1.20243e-29
1.19825e-29
1.19303e-29
1.18669e-29
1.17915e-29
1.17035e-29
1.16028e-29
1.14894e-29
1.13641e-29
1.12281e-29
1.10834e-29
1.09324e-29
1.07779e-29
1.06231e-29
1.04713e-29
1.03257e-29
1.15155e-29
1.15104e-29
1.15e-29
1.14841e-29
1.14622e-29
1.14339e-29
1.13986e-29
1.13557e-29
1.13048e-29
1.12454e-29
1.11774e-29
1.11009e-29
1.10163e-29
1.09243e-29
1.08261e-29
1.07233e-29
1.06176e-29
1.05113e-29
1.04063e-29
1.0305e-29
1.11199e-29
1.11164e-29
1.11093e-29
1.10983e-29
1.10832e-29
1.10638e-29
1.10396e-29
1.10102e-29
1.09754e-29
1.09349e-29
1.08886e-29
1.08364e-29
1.07787e-29
1.0716e-29
1.0649e-29
1.05787e-29
1.05063e-29
1.04331e-29
1.03607e-29
1.02904e-29
1.08501e-29
1.08476e-29
1.08426e-29
1.0835e-29
1.08246e-29
1.08111e-29
1.07944e-29
1.07742e-29
1.07502e-29
1.07224e-29
1.06906e-29
1.06549e-29
1.06154e-29
1.05725e-29
1.05267e-29
1.04785e-29
1.04289e-29
1.03786e-29
1.03287e-29
1.02801e-29
1.06645e-29
1.06628e-29
1.06593e-29
1.0654e-29
1.06468e-29
1.06374e-29
1.06258e-29
1.06118e-29
1.05953e-29
1.05762e-29
1.05543e-29
1.05298e-29
1.05028e-29
1.04734e-29
1.0442e-29
1.04091e-29
1.0375e-29
1.03406e-29
1.03063e-29
1.02729e-29
1.05365e-29
1.05353e-29
1.05329e-29
1.05292e-29
1.05241e-29
1.05176e-29
1.05096e-29
1.04999e-29
1.04885e-29
1.04753e-29
1.04603e-29
1.04435e-29
1.0425e-29
1.04049e-29
1.03835e-29
1.0361e-29
1.03377e-29
1.03142e-29
1.02908e-29
1.02679e-29
1.0448e-29
1.04472e-29
1.04455e-29
1.04429e-29
1.04394e-29
1.04349e-29
1.04294e-29
1.04227e-29
1.04149e-29
1.04058e-29
1.03955e-29
1.0384e-29
1.03714e-29
1.03577e-29
1.03431e-29
1.03277e-29
1.03119e-29
1.02959e-29
1.028e-29
1.02644e-29
1.0387e-29
1.03864e-29
1.03853e-29
1.03835e-29
1.03811e-29
1.0378e-29
1.03741e-29
1.03696e-29
1.03642e-29
1.0358e-29
1.03509e-29
1.03431e-29
1.03345e-29
1.03252e-29
1.03153e-29
1.03049e-29
1.02942e-29
1.02833e-29
1.02725e-29
1.0262e-29
1.03451e-29
1.03447e-29
1.03439e-29
1.03426e-29
1.0341e-29
1.03388e-29
1.03362e-29
1.03331e-29
1.03294e-29
1.03252e-29
1.03204e-29
1.03151e-29
1.03092e-29
1.03029e-29
1.02962e-29
1.02892e-29
1.0282e-29
1.02747e-29
1.02674e-29
1.02603e-29
1.03163e-29
1.0316e-29
1.03155e-29
1.03146e-29
1.03135e-29
1.0312e-29
1.03102e-29
1.03081e-29
1.03056e-29
1.03027e-29
1.02995e-29
1.02959e-29
1.0292e-29
1.02878e-29
1.02833e-29
1.02786e-29
1.02737e-29
1.02688e-29
1.0264e-29
1.02592e-29
1.02967e-29
1.02965e-29
1.02961e-29
1.02956e-29
1.02948e-29
1.02938e-29
1.02926e-29
1.02911e-29
1.02894e-29
1.02875e-29
1.02853e-29
1.02829e-29
1.02803e-29
1.02775e-29
1.02745e-29
1.02713e-29
1.02681e-29
1.02649e-29
1.02616e-29
1.02584e-29
1.02834e-29
1.02833e-29
1.0283e-29
1.02826e-29
1.02821e-29
1.02814e-29
1.02806e-29
1.02796e-29
1.02785e-29
1.02772e-29
1.02758e-29
1.02742e-29
1.02724e-29
1.02705e-29
1.02685e-29
1.02665e-29
1.02643e-29
1.02622e-29
1.026e-29
1.02579e-29
1.02744e-29
1.02743e-29
1.02742e-29
1.02739e-29
1.02736e-29
1.02731e-29
1.02726e-29
1.02719e-29
1.02712e-29
1.02703e-29
1.02693e-29
1.02683e-29
1.02671e-29
1.02659e-29
1.02646e-29
1.02632e-29
1.02618e-29
1.02604e-29
1.0259e-29
1.02576e-29
1.02684e-29
1.02684e-29
1.02683e-29
1.02681e-29
1.02678e-29
1.02676e-29
1.02672e-29
1.02668e-29
1.02663e-29
1.02657e-29
1.02651e-29
1.02644e-29
1.02636e-29
1.02628e-29
1.02619e-29
1.0261e-29
1.02601e-29
1.02592e-29
1.02583e-29
1.02574e-29
1.02644e-29
1.02644e-29
1.02643e-29
1.02642e-29
1.0264e-29
1.02639e-29
1.02636e-29
1.02633e-29
1.0263e-29
1.02626e-29
1.02622e-29
1.02618e-29
1.02613e-29
1.02607e-29
1.02602e-29
1.02596e-29
1.0259e-29
1.02584e-29
1.02578e-29
1.02572e-29
1.02618e-29
1.02618e-29
1.02617e-29
1.02616e-29
1.02615e-29
1.02614e-29
1.02613e-29
1.02611e-29
1.02609e-29
1.02606e-29
1.02603e-29
1.026e-29
1.02597e-29
1.02594e-29
1.0259e-29
1.02586e-29
1.02583e-29
1.02579e-29
1.02575e-29
1.02571e-29
1.02601e-29
1.026e-29
1.026e-29
1.026e-29
1.02599e-29
1.02598e-29
1.02597e-29
1.02596e-29
1.02595e-29
1.02593e-29
1.02591e-29
1.02589e-29
1.02587e-29
1.02585e-29
1.02583e-29
1.0258e-29
1.02578e-29
1.02575e-29
1.02573e-29
1.0257e-29
1.02589e-29
1.02589e-29
1.02589e-29
1.02589e-29
1.02588e-29
1.02588e-29
1.02587e-29
1.02586e-29
1.02585e-29
1.02584e-29
1.02583e-29
1.02582e-29
1.02581e-29
1.02579e-29
1.02578e-29
1.02576e-29
1.02575e-29
1.02573e-29
1.02572e-29
1.0257e-29
1.02582e-29
1.02582e-29
1.02582e-29
1.02582e-29
1.02581e-29
1.02581e-29
1.02581e-29
1.0258e-29
1.02579e-29
1.02579e-29
1.02578e-29
1.02577e-29
1.02577e-29
1.02576e-29
1.02575e-29
1.02574e-29
1.02573e-29
1.02572e-29
1.02571e-29
1.0257e-29
1.02577e-29
1.02577e-29
1.02577e-29
1.02577e-29
1.02577e-29
1.02577e-29
1.02576e-29
1.02576e-29
1.02576e-29
1.02575e-29
1.02575e-29
1.02574e-29
1.02574e-29
1.02573e-29
1.02573e-29
1.02572e-29
1.02571e-29
1.02571e-29
1.0257e-29
1.0257e-29
1.02574e-29
1.02574e-29
1.02574e-29
1.02574e-29
1.02574e-29
1.02574e-29
1.02574e-29
1.02574e-29
1.02573e-29
1.02573e-29
1.02573e-29
1.02572e-29
1.02572e-29
1.02572e-29
1.02571e-29
1.02571e-29
1.02571e-29
1.0257e-29
1.0257e-29
1.02569e-29
1.02572e-29
1.02572e-29
1.02572e-29
1.02572e-29
1.02572e-29
1.02572e-29
1.02572e-29
1.02572e-29
1.02572e-29
1.02572e-29
1.02571e-29
1.02571e-29
1.02571e-29
1.02571e-29
1.02571e-29
1.0257e-29
1.0257e-29
1.0257e-29
1.0257e-29
1.02569e-29
1.02571e-29
1.02571e-29
1.02571e-29
1.02571e-29
1.02571e-29
1.02571e-29
1.02571e-29
1.02571e-29
1.02571e-29
1.02571e-29
1.02571e-29
1.02571e-29
1.0257e-29
1.0257e-29
1.0257e-29
1.0257e-29
1.0257e-29
1.0257e-29
1.02569e-29
1.02569e-29
1.02571e-29
1.02571e-29
1.02571e-29
1.02571e-29
1.02571e-29
1.02571e-29
1.02571e-29
1.0257e-29
1.0257e-29
1.0257e-29
1.0257e-29
1.0257e-29
1.0257e-29
1.0257e-29
1.0257e-29
1.0257e-29
1.0257e-29
1.0257e-29
1.02569e-29
1.02569e-29
1.0257e-29
1.0257e-29
1.0257e-29
1.0257e-29
1.0257e-29
1.0257e-29
1.0257e-29
1.0257e-29
1.0257e-29
1.0257e-29
1.0257e-29
1.0257e-29
1.0257e-29
1.0257e-29
1.0257e-29
1.0257e-29
1.0257e-29
1.02569e-29
1.02569e-29
1.02569e-29
)
;

boundaryField
{
    topWall
    {
        type            zeroGradient;
    }
    bottomWall
    {
        type            zeroGradient;
    }
    sideWallL
    {
        type            symmetry;
    }
    sideWallR
    {
        type            zeroGradient;
    }
    frontAndBack
    {
        type            empty;
    }
}


// ************************************************************************* //
