/*--------------------------------*- C++ -*----------------------------------*\
  =========                 |
  \\      /  F ield         | OpenFOAM: The Open Source CFD Toolbox
   \\    /   O peration     | Website:  https://openfoam.org
    \\  /    A nd           | Version:  7
     \\/     M anipulation  |
\*---------------------------------------------------------------------------*/
FoamFile
{
    version     2.0;
    format      ascii;
    class       volScalarField;
    location    "21";
    object      rhog;
}
// * * * * * * * * * * * * * * * * * * * * * * * * * * * * * * * * * * * * * //

dimensions      [1 -3 0 0 0 0 0];

internalField   nonuniform List<scalar> 
900
(
3.762e-05
3.75957e-05
3.75448e-05
3.74629e-05
3.73424e-05
3.71723e-05
3.69367e-05
3.6613e-05
3.61694e-05
3.55607e-05
3.47228e-05
3.35632e-05
3.19476e-05
2.96797e-05
2.64732e-05
2.19283e-05
1.56041e-05
7.67563e-06
1.2299e-06
1.91783e-09
2.32663e-06
2.32167e-06
2.31135e-06
2.29479e-06
2.27062e-06
2.23683e-06
2.19069e-06
2.12849e-06
2.04546e-06
1.93554e-06
1.79152e-06
1.60554e-06
1.37078e-06
1.08542e-06
7.60469e-07
4.31701e-07
1.66151e-07
2.92383e-08
9.05189e-10
4.2747e-13
1.54099e-07
1.53515e-07
1.52302e-07
1.50368e-07
1.4757e-07
1.43707e-07
1.3852e-07
1.31686e-07
1.22836e-07
1.11597e-07
9.76728e-08
8.10177e-08
6.21045e-08
4.22689e-08
2.39156e-08
1.00521e-08
2.57175e-09
2.78981e-10
6.75289e-12
1.59307e-14
1.13464e-08
1.12841e-08
1.11553e-08
1.09512e-08
1.06587e-08
1.02605e-08
9.73524e-09
9.05987e-09
8.21291e-09
7.18155e-09
5.97288e-09
4.62935e-09
3.24423e-09
1.96441e-09
9.58791e-10
3.38826e-10
7.34922e-11
7.66985e-12
2.85698e-13
3.81278e-15
9.61938e-10
9.55136e-10
9.41119e-10
9.19067e-10
8.87778e-10
8.45743e-10
7.91291e-10
7.22888e-10
6.39646e-10
5.42105e-10
4.33241e-10
3.1944e-10
2.10709e-10
1.19038e-10
5.41631e-11
1.82286e-11
4.05606e-12
5.2498e-13
3.66673e-14
1.84914e-15
9.68261e-11
9.60142e-11
9.4347e-11
9.17408e-11
8.80769e-11
8.32153e-11
7.70186e-11
6.93921e-11
6.03451e-11
5.0071e-11
3.90299e-11
2.79901e-11
1.79584e-11
9.93445e-12
4.51781e-12
1.59326e-12
4.09068e-13
7.30519e-14
9.45413e-15
1.22479e-15
1.18601e-11
1.17496e-11
1.15234e-11
1.11719e-11
1.06815e-11
1.00377e-11
9.22795e-12
8.24735e-12
7.10639e-12
5.83936e-12
4.51125e-12
3.2175e-12
2.07025e-12
1.16826e-12
5.5949e-13
2.19749e-13
6.89456e-14
1.7354e-14
3.82377e-15
9.50642e-16
1.79905e-12
1.78144e-12
1.74548e-12
1.68982e-12
1.6127e-12
1.51224e-12
1.38712e-12
1.23731e-12
1.06519e-12
8.76522e-13
6.81174e-13
4.92622e-13
3.25809e-13
1.93253e-13
1.0079e-13
4.55074e-14
1.7751e-14
6.16134e-15
2.08238e-15
8.06928e-16
3.41434e-13
3.38091e-13
3.31281e-13
3.20777e-13
3.06286e-13
2.87515e-13
2.64279e-13
2.36642e-13
2.05082e-13
1.70648e-13
1.35044e-13
1.00524e-13
6.95462e-14
4.41899e-14
2.55453e-14
1.33989e-14
6.45029e-15
2.95566e-15
1.38267e-15
7.23102e-16
8.13727e-14
8.06132e-14
7.90683e-14
7.66906e-14
7.34191e-14
6.91949e-14
6.39818e-14
5.77953e-14
5.07355e-14
4.30164e-14
3.49798e-14
2.70771e-14
1.98066e-14
1.3611e-14
8.76728e-15
5.3183e-15
3.08733e-15
1.76963e-15
1.04771e-15
6.70745e-16
2.43175e-14
2.41114e-14
2.36926e-14
2.30488e-14
2.21641e-14
2.1023e-14
1.96153e-14
1.79431e-14
1.60286e-14
1.39206e-14
1.16989e-14
9.47046e-15
7.35749e-15
5.47597e-15
3.9115e-15
2.70103e-15
1.82931e-15
1.24183e-15
8.66946e-16
6.36514e-16
9.05976e-15
8.99361e-15
8.8592e-15
8.65264e-15
8.36887e-15
8.00272e-15
7.55037e-15
7.0113e-15
6.39044e-15
5.70022e-15
4.9618e-15
4.2047e-15
3.46408e-15
2.77584e-15
2.17027e-15
1.66659e-15
1.27013e-15
9.73509e-16
7.60923e-16
6.13424e-16
4.16044e-15
4.13567e-15
4.08535e-15
4.00799e-15
3.90167e-15
3.76431e-15
3.59418e-15
3.39054e-15
3.15434e-15
2.88896e-15
2.60064e-15
2.29859e-15
1.9944e-15
1.70071e-15
1.42944e-15
1.18991e-15
9.87514e-16
8.23372e-16
6.9498e-16
5.97508e-16
2.30863e-15
2.29801e-15
2.27642e-15
2.24322e-15
2.19755e-15
2.13845e-15
2.06504e-15
1.97676e-15
1.87365e-15
1.7566e-15
1.62761e-15
1.48986e-15
1.34758e-15
1.20573e-15
1.06941e-15
9.43177e-16
8.30494e-16
7.33346e-16
6.52223e-16
5.86374e-16
1.50341e-15
1.49829e-15
1.48788e-15
1.47188e-15
1.44985e-15
1.42129e-15
1.38571e-15
1.34276e-15
1.29227e-15
1.23445e-15
1.16995e-15
1.09995e-15
1.02614e-15
9.50644e-16
8.7579e-16
8.03896e-16
7.3699e-16
6.76605e-16
6.23669e-16
5.78505e-16
1.11009e-15
1.10738e-15
1.10186e-15
1.09337e-15
1.08167e-15
1.06648e-15
1.04753e-15
1.02457e-15
9.97445e-16
9.66158e-16
9.30922e-16
8.92195e-16
8.50703e-16
8.07412e-16
7.63464e-16
7.20076e-16
6.78426e-16
6.39539e-16
6.04198e-16
5.72908e-16
8.99166e-16
8.9761e-16
8.94447e-16
8.8958e-16
8.82873e-16
8.74162e-16
8.63274e-16
8.50052e-16
8.34375e-16
8.162e-16
7.95584e-16
7.72713e-16
7.47916e-16
7.21662e-16
6.9454e-16
6.67217e-16
6.40384e-16
6.14698e-16
5.90728e-16
5.68912e-16
7.77476e-16
7.76528e-16
7.74603e-16
7.71641e-16
7.67559e-16
7.62258e-16
7.55627e-16
7.47564e-16
7.37983e-16
7.26838e-16
7.14133e-16
6.99947e-16
6.84435e-16
6.6784e-16
6.50481e-16
6.32736e-16
6.1502e-16
5.97751e-16
5.81317e-16
5.66054e-16
7.03242e-16
7.02638e-16
7.01411e-16
6.99524e-16
6.96926e-16
6.93552e-16
6.89333e-16
6.842e-16
6.78094e-16
6.70978e-16
6.62843e-16
6.53719e-16
6.43688e-16
6.32879e-16
6.21474e-16
6.09695e-16
5.97796e-16
5.86045e-16
5.74703e-16
5.6401e-16
6.5603e-16
6.55632e-16
6.54823e-16
6.5358e-16
6.5187e-16
6.49651e-16
6.46878e-16
6.43506e-16
6.39495e-16
6.34817e-16
6.29461e-16
6.2344e-16
6.16797e-16
6.09607e-16
6.01974e-16
5.94037e-16
5.85953e-16
5.77896e-16
5.70039e-16
5.62549e-16
6.25074e-16
6.24805e-16
6.24259e-16
6.2342e-16
6.22268e-16
6.20774e-16
6.1891e-16
6.16645e-16
6.13953e-16
6.10814e-16
6.07218e-16
6.03173e-16
5.98701e-16
5.93848e-16
5.88678e-16
5.83277e-16
5.77745e-16
5.72195e-16
5.66745e-16
5.61507e-16
6.04331e-16
6.04146e-16
6.03771e-16
6.03196e-16
6.02407e-16
6.01385e-16
6.00112e-16
5.98568e-16
5.96735e-16
5.94599e-16
5.92154e-16
5.89404e-16
5.86362e-16
5.83056e-16
5.79527e-16
5.75829e-16
5.72029e-16
5.682e-16
5.6442e-16
5.60767e-16
5.90222e-16
5.90094e-16
5.89834e-16
5.89436e-16
5.88889e-16
5.88184e-16
5.87306e-16
5.86243e-16
5.84983e-16
5.83518e-16
5.81842e-16
5.79959e-16
5.77876e-16
5.75612e-16
5.73193e-16
5.70655e-16
5.6804e-16
5.65399e-16
5.62782e-16
5.60242e-16
5.80533e-16
5.80443e-16
5.80262e-16
5.79984e-16
5.79604e-16
5.79114e-16
5.78506e-16
5.7777e-16
5.769e-16
5.7589e-16
5.74737e-16
5.73443e-16
5.72012e-16
5.70458e-16
5.68798e-16
5.67054e-16
5.65257e-16
5.63437e-16
5.6163e-16
5.59872e-16
5.73841e-16
5.73778e-16
5.73652e-16
5.73458e-16
5.73193e-16
5.72852e-16
5.72429e-16
5.71919e-16
5.71317e-16
5.7062e-16
5.69826e-16
5.68935e-16
5.67952e-16
5.66886e-16
5.65746e-16
5.64551e-16
5.63317e-16
5.62067e-16
5.60824e-16
5.59612e-16
5.69208e-16
5.69164e-16
5.69075e-16
5.6894e-16
5.68755e-16
5.68518e-16
5.68225e-16
5.67872e-16
5.67456e-16
5.66975e-16
5.66428e-16
5.65816e-16
5.65142e-16
5.64411e-16
5.63631e-16
5.62813e-16
5.61968e-16
5.61113e-16
5.60262e-16
5.59431e-16
5.66e-16
5.65969e-16
5.65907e-16
5.65813e-16
5.65685e-16
5.6552e-16
5.65317e-16
5.65073e-16
5.64786e-16
5.64455e-16
5.6408e-16
5.6366e-16
5.63199e-16
5.627e-16
5.62168e-16
5.6161e-16
5.61035e-16
5.60452e-16
5.59871e-16
5.59304e-16
5.63782e-16
5.63761e-16
5.63718e-16
5.63653e-16
5.63564e-16
5.6345e-16
5.6331e-16
5.63142e-16
5.62945e-16
5.62718e-16
5.62461e-16
5.62175e-16
5.61861e-16
5.61521e-16
5.6116e-16
5.60781e-16
5.60391e-16
5.59995e-16
5.59602e-16
5.59217e-16
5.62254e-16
5.62239e-16
5.6221e-16
5.62165e-16
5.62104e-16
5.62025e-16
5.61929e-16
5.61814e-16
5.61679e-16
5.61525e-16
5.6135e-16
5.61155e-16
5.60942e-16
5.60712e-16
5.60468e-16
5.60212e-16
5.59949e-16
5.59682e-16
5.59417e-16
5.59157e-16
5.61205e-16
5.61195e-16
5.61175e-16
5.61144e-16
5.61102e-16
5.61049e-16
5.60983e-16
5.60905e-16
5.60813e-16
5.60708e-16
5.6059e-16
5.60459e-16
5.60315e-16
5.6016e-16
5.59996e-16
5.59824e-16
5.59647e-16
5.59468e-16
5.5929e-16
5.59116e-16
5.60489e-16
5.60483e-16
5.60469e-16
5.60448e-16
5.60419e-16
5.60383e-16
5.60338e-16
5.60285e-16
5.60224e-16
5.60153e-16
5.60073e-16
5.59985e-16
5.59888e-16
5.59785e-16
5.59675e-16
5.5956e-16
5.59442e-16
5.59323e-16
5.59204e-16
5.59088e-16
5.60003e-16
5.59999e-16
5.59989e-16
5.59975e-16
5.59956e-16
5.59931e-16
5.59901e-16
5.59866e-16
5.59824e-16
5.59777e-16
5.59724e-16
5.59665e-16
5.596e-16
5.59531e-16
5.59458e-16
5.59382e-16
5.59304e-16
5.59225e-16
5.59146e-16
5.5907e-16
5.59675e-16
5.59672e-16
5.59666e-16
5.59656e-16
5.59643e-16
5.59627e-16
5.59607e-16
5.59583e-16
5.59555e-16
5.59524e-16
5.59489e-16
5.59449e-16
5.59407e-16
5.59361e-16
5.59313e-16
5.59263e-16
5.59211e-16
5.59159e-16
5.59108e-16
5.59057e-16
5.59455e-16
5.59453e-16
5.59449e-16
5.59443e-16
5.59434e-16
5.59423e-16
5.5941e-16
5.59394e-16
5.59376e-16
5.59355e-16
5.59332e-16
5.59306e-16
5.59278e-16
5.59248e-16
5.59216e-16
5.59183e-16
5.5915e-16
5.59115e-16
5.59082e-16
5.59049e-16
5.59309e-16
5.59307e-16
5.59305e-16
5.593e-16
5.59295e-16
5.59288e-16
5.59279e-16
5.59268e-16
5.59256e-16
5.59243e-16
5.59227e-16
5.5921e-16
5.59192e-16
5.59173e-16
5.59152e-16
5.59131e-16
5.59109e-16
5.59086e-16
5.59065e-16
5.59043e-16
5.59212e-16
5.59211e-16
5.59209e-16
5.59206e-16
5.59203e-16
5.59198e-16
5.59192e-16
5.59185e-16
5.59177e-16
5.59169e-16
5.59159e-16
5.59148e-16
5.59136e-16
5.59123e-16
5.5911e-16
5.59096e-16
5.59082e-16
5.59067e-16
5.59053e-16
5.59039e-16
5.59148e-16
5.59148e-16
5.59146e-16
5.59145e-16
5.59142e-16
5.59139e-16
5.59135e-16
5.59131e-16
5.59126e-16
5.5912e-16
5.59114e-16
5.59107e-16
5.59099e-16
5.59091e-16
5.59082e-16
5.59073e-16
5.59064e-16
5.59055e-16
5.59046e-16
5.59037e-16
5.59107e-16
5.59106e-16
5.59105e-16
5.59104e-16
5.59103e-16
5.59101e-16
5.59098e-16
5.59095e-16
5.59092e-16
5.59089e-16
5.59084e-16
5.5908e-16
5.59075e-16
5.5907e-16
5.59064e-16
5.59059e-16
5.59053e-16
5.59047e-16
5.59041e-16
5.59035e-16
5.5908e-16
5.59079e-16
5.59079e-16
5.59078e-16
5.59077e-16
5.59076e-16
5.59074e-16
5.59073e-16
5.5907e-16
5.59068e-16
5.59065e-16
5.59063e-16
5.5906e-16
5.59056e-16
5.59053e-16
5.59049e-16
5.59045e-16
5.59042e-16
5.59038e-16
5.59034e-16
5.59062e-16
5.59062e-16
5.59062e-16
5.59061e-16
5.59061e-16
5.5906e-16
5.59059e-16
5.59058e-16
5.59057e-16
5.59055e-16
5.59053e-16
5.59052e-16
5.5905e-16
5.59048e-16
5.59045e-16
5.59043e-16
5.59041e-16
5.59038e-16
5.59036e-16
5.59034e-16
5.59051e-16
5.59051e-16
5.59051e-16
5.59051e-16
5.5905e-16
5.5905e-16
5.59049e-16
5.59049e-16
5.59048e-16
5.59047e-16
5.59046e-16
5.59045e-16
5.59043e-16
5.59042e-16
5.59041e-16
5.59039e-16
5.59038e-16
5.59036e-16
5.59035e-16
5.59033e-16
5.59045e-16
5.59045e-16
5.59044e-16
5.59044e-16
5.59044e-16
5.59044e-16
5.59043e-16
5.59043e-16
5.59042e-16
5.59042e-16
5.59041e-16
5.5904e-16
5.59039e-16
5.59039e-16
5.59038e-16
5.59037e-16
5.59036e-16
5.59035e-16
5.59034e-16
5.59033e-16
5.5904e-16
5.5904e-16
5.5904e-16
5.5904e-16
5.5904e-16
5.5904e-16
5.5904e-16
5.59039e-16
5.59039e-16
5.59038e-16
5.59038e-16
5.59038e-16
5.59037e-16
5.59037e-16
5.59036e-16
5.59035e-16
5.59035e-16
5.59034e-16
5.59034e-16
5.59033e-16
5.59038e-16
5.59038e-16
5.59038e-16
5.59038e-16
5.59038e-16
5.59038e-16
5.59037e-16
5.59037e-16
5.59037e-16
5.59037e-16
5.59036e-16
5.59036e-16
5.59036e-16
5.59035e-16
5.59035e-16
5.59035e-16
5.59034e-16
5.59034e-16
5.59033e-16
5.59033e-16
5.59037e-16
5.59037e-16
5.59037e-16
5.59037e-16
5.59037e-16
5.59037e-16
5.59037e-16
5.59036e-16
5.59036e-16
5.59036e-16
5.59036e-16
5.59035e-16
5.59035e-16
5.59035e-16
5.59035e-16
5.59034e-16
5.59034e-16
5.59034e-16
5.59033e-16
5.59033e-16
)
;

boundaryField
{
    topWall
    {
        type            calculated;
        value           uniform 0;
    }
    bottomWall
    {
        type            zeroGradient;
    }
    sideWallL
    {
        type            symmetry;
    }
    sideWallR
    {
        type            calculated;
        value           uniform 0;
    }
    frontAndBack
    {
        type            empty;
    }
}


// ************************************************************************* //
