/*--------------------------------*- C++ -*----------------------------------*\
  =========                 |
  \\      /  F ield         | OpenFOAM: The Open Source CFD Toolbox
   \\    /   O peration     | Website:  https://openfoam.org
    \\  /    A nd           | Version:  7
     \\/     M anipulation  |
\*---------------------------------------------------------------------------*/
FoamFile
{
    version     2.0;
    format      ascii;
    class       volScalarField;
    location    "21";
    object      rhois;
}
// * * * * * * * * * * * * * * * * * * * * * * * * * * * * * * * * * * * * * //

dimensions      [1 -3 0 0 0 0 0];

internalField   nonuniform List<scalar> 
900
(
0.000692556
0.000692239
0.000691578
0.000690511
0.000688937
0.00068671
0.000683613
0.000679341
0.000673455
0.00066533
0.000654055
0.00063829
0.000616025
0.000584172
0.000537871
0.000469358
0.000366836
0.000219327
5.81531e-05
5.44936e-07
8.99244e-05
8.97892e-05
8.95069e-05
8.9053e-05
8.83877e-05
8.74528e-05
8.61668e-05
8.44176e-05
8.20544e-05
7.88771e-05
7.46267e-05
6.89809e-05
6.15696e-05
5.20433e-05
4.02658e-05
2.67556e-05
1.34235e-05
3.8277e-06
3.1293e-07
1.33487e-09
1.23271e-05
1.22941e-05
1.22255e-05
1.21156e-05
1.19557e-05
1.17331e-05
1.14308e-05
1.10268e-05
1.04935e-05
9.79867e-06
8.90778e-06
7.79106e-06
6.43796e-06
4.88297e-06
3.24185e-06
1.73748e-06
6.51625e-07
1.32176e-07
9.25978e-09
1.34334e-10
1.83409e-06
1.82699e-06
1.81227e-06
1.78883e-06
1.75497e-06
1.70834e-06
1.64592e-06
1.56405e-06
1.45863e-06
1.32567e-06
1.16235e-06
9.6887e-07
7.51274e-07
5.24533e-07
3.1375e-07
1.48927e-07
4.99039e-08
9.96683e-09
9.77122e-10
5.04055e-11
3.03966e-07
3.02456e-07
2.99332e-07
2.94385e-07
2.87295e-07
2.77637e-07
2.64892e-07
2.48482e-07
2.27849e-07
2.02603e-07
1.72761e-07
1.39078e-07
1.034e-07
6.88264e-08
3.92672e-08
1.80861e-08
6.22416e-09
1.47205e-09
2.31911e-10
3.07623e-11
5.74063e-08
5.70696e-08
5.63751e-08
5.52808e-08
5.37245e-08
5.16261e-08
4.88931e-08
4.54323e-08
4.11703e-08
3.60862e-08
3.02579e-08
2.39131e-08
1.74641e-08
1.14835e-08
6.57654e-09
3.15231e-09
1.21393e-09
3.66972e-10
9.1233e-11
2.31981e-11
1.2585e-08
1.25035e-08
1.23359e-08
1.2073e-08
1.17016e-08
1.12053e-08
1.05662e-08
9.76784e-09
8.80058e-09
7.66848e-09
6.39809e-09
5.04635e-09
3.7027e-09
2.47871e-09
1.48081e-09
7.72406e-10
3.46906e-10
1.35653e-10
4.94082e-11
1.94759e-11
3.24665e-09
3.22475e-09
3.17982e-09
3.10964e-09
3.01106e-09
2.88026e-09
2.71328e-09
2.50682e-09
2.25954e-09
1.97364e-09
1.65669e-09
1.32296e-09
9.93243e-10
6.9209e-10
4.42066e-10
2.56691e-10
1.35843e-10
6.71425e-11
3.28565e-11
1.7376e-11
9.94408e-10
9.87793e-10
9.74247e-10
9.53155e-10
9.23654e-10
8.84721e-10
8.35324e-10
7.74663e-10
7.02499e-10
6.19576e-10
5.28037e-10
4.31697e-10
3.3594e-10
2.4702e-10
1.70754e-10
1.10974e-10
6.84726e-11
4.10942e-11
2.49675e-11
1.60888e-11
3.63222e-10
3.60964e-10
3.56346e-10
3.49173e-10
3.39171e-10
3.2602e-10
3.09398e-10
2.89061e-10
2.64939e-10
2.37254e-10
2.06639e-10
1.74207e-10
1.41526e-10
1.10435e-10
8.27182e-11
5.9704e-11
4.19635e-11
2.92486e-11
2.0709e-11
1.52562e-11
1.58172e-10
1.57302e-10
1.55525e-10
1.52769e-10
1.48935e-10
1.43904e-10
1.37559e-10
1.29805e-10
1.20609e-10
1.10032e-10
9.82688e-11
8.5676e-11
7.27624e-11
6.01435e-11
4.84493e-11
3.82075e-11
2.97414e-11
2.3124e-11
1.82056e-11
1.46982e-11
8.15726e-11
8.11971e-11
8.04306e-11
7.92432e-11
7.75931e-11
7.54306e-11
7.2705e-11
6.93741e-11
6.54162e-11
6.0845e-11
5.57235e-11
5.0174e-11
4.43789e-11
3.85678e-11
3.29897e-11
2.7875e-11
2.3398e-11
1.96516e-11
1.66439e-11
1.43148e-11
4.90849e-11
4.89052e-11
4.85385e-11
4.79709e-11
4.71826e-11
4.61502e-11
4.4849e-11
4.32572e-11
4.1361e-11
3.91605e-11
3.66758e-11
3.39516e-11
3.10588e-11
2.80912e-11
2.51564e-11
2.23627e-11
1.98041e-11
1.75477e-11
1.56279e-11
1.40469e-11
3.3688e-11
3.35938e-11
3.34018e-11
3.31048e-11
3.26925e-11
3.21528e-11
3.14723e-11
3.06388e-11
2.96434e-11
2.84831e-11
2.71637e-11
2.57022e-11
2.41281e-11
2.24826e-11
2.08158e-11
1.91819e-11
1.76323e-11
1.62105e-11
1.4947e-11
1.38577e-11
2.56745e-11
2.56212e-11
2.55127e-11
2.5345e-11
2.51123e-11
2.48078e-11
2.44238e-11
2.39531e-11
2.33898e-11
2.27307e-11
2.19771e-11
2.11353e-11
2.02184e-11
1.92458e-11
1.82422e-11
1.72361e-11
1.62566e-11
1.53309e-11
1.4481e-11
1.37229e-11
2.11721e-11
2.11401e-11
2.10749e-11
2.09741e-11
2.08344e-11
2.06516e-11
2.04213e-11
2.01387e-11
1.98002e-11
1.94032e-11
1.89472e-11
1.84349e-11
1.78721e-11
1.72686e-11
1.66372e-11
1.59936e-11
1.53549e-11
1.47377e-11
1.41575e-11
1.36265e-11
1.84842e-11
1.84639e-11
1.84227e-11
1.83591e-11
1.8271e-11
1.81559e-11
1.80109e-11
1.78331e-11
1.762e-11
1.73696e-11
1.70814e-11
1.67562e-11
1.63969e-11
1.60085e-11
1.55983e-11
1.51751e-11
1.4749e-11
1.43308e-11
1.39306e-11
1.35574e-11
1.68021e-11
1.67888e-11
1.67618e-11
1.67201e-11
1.66625e-11
1.65872e-11
1.64925e-11
1.63765e-11
1.62375e-11
1.60742e-11
1.58859e-11
1.5673e-11
1.54368e-11
1.51803e-11
1.49074e-11
1.46235e-11
1.43349e-11
1.40483e-11
1.37705e-11
1.35078e-11
1.57113e-11
1.57024e-11
1.56841e-11
1.56561e-11
1.56173e-11
1.55667e-11
1.55032e-11
1.54255e-11
1.53325e-11
1.52232e-11
1.50973e-11
1.49547e-11
1.47962e-11
1.46235e-11
1.4439e-11
1.4246e-11
1.40485e-11
1.38507e-11
1.36571e-11
1.34722e-11
1.49851e-11
1.4979e-11
1.49664e-11
1.49471e-11
1.49205e-11
1.48859e-11
1.48424e-11
1.47894e-11
1.4726e-11
1.46517e-11
1.4566e-11
1.4469e-11
1.43611e-11
1.42434e-11
1.41173e-11
1.39849e-11
1.38488e-11
1.37117e-11
1.35767e-11
1.34468e-11
1.44924e-11
1.44881e-11
1.44794e-11
1.4466e-11
1.44474e-11
1.44234e-11
1.43933e-11
1.43567e-11
1.4313e-11
1.42617e-11
1.42028e-11
1.41362e-11
1.40621e-11
1.39812e-11
1.38944e-11
1.38031e-11
1.3709e-11
1.36138e-11
1.35197e-11
1.34286e-11
1.41538e-11
1.41508e-11
1.41446e-11
1.41352e-11
1.41222e-11
1.41054e-11
1.40844e-11
1.40589e-11
1.40285e-11
1.3993e-11
1.39522e-11
1.39061e-11
1.38549e-11
1.37991e-11
1.37392e-11
1.36761e-11
1.36109e-11
1.35448e-11
1.34793e-11
1.34157e-11
1.39191e-11
1.3917e-11
1.39126e-11
1.3906e-11
1.38968e-11
1.3885e-11
1.38703e-11
1.38524e-11
1.38312e-11
1.38065e-11
1.37782e-11
1.37463e-11
1.37108e-11
1.36722e-11
1.36308e-11
1.35872e-11
1.3542e-11
1.34963e-11
1.34508e-11
1.34065e-11
1.37556e-11
1.37541e-11
1.37511e-11
1.37464e-11
1.37399e-11
1.37316e-11
1.37213e-11
1.37088e-11
1.3694e-11
1.36768e-11
1.36571e-11
1.36349e-11
1.36104e-11
1.35837e-11
1.35551e-11
1.3525e-11
1.34938e-11
1.34622e-11
1.34307e-11
1.34e-11
1.36416e-11
1.36405e-11
1.36383e-11
1.3635e-11
1.36305e-11
1.36247e-11
1.36174e-11
1.36087e-11
1.35984e-11
1.35864e-11
1.35727e-11
1.35574e-11
1.35404e-11
1.3522e-11
1.35023e-11
1.34815e-11
1.34601e-11
1.34383e-11
1.34166e-11
1.33955e-11
1.3562e-11
1.35612e-11
1.35597e-11
1.35574e-11
1.35542e-11
1.35501e-11
1.35451e-11
1.3539e-11
1.35318e-11
1.35235e-11
1.3514e-11
1.35035e-11
1.34918e-11
1.34791e-11
1.34655e-11
1.34513e-11
1.34366e-11
1.34217e-11
1.34068e-11
1.33923e-11
1.35066e-11
1.35061e-11
1.3505e-11
1.35034e-11
1.35011e-11
1.34983e-11
1.34948e-11
1.34906e-11
1.34856e-11
1.34798e-11
1.34733e-11
1.3466e-11
1.3458e-11
1.34493e-11
1.34401e-11
1.34304e-11
1.34203e-11
1.34101e-11
1.34e-11
1.33901e-11
1.34681e-11
1.34678e-11
1.3467e-11
1.34659e-11
1.34644e-11
1.34624e-11
1.34599e-11
1.3457e-11
1.34536e-11
1.34497e-11
1.34452e-11
1.34402e-11
1.34347e-11
1.34288e-11
1.34225e-11
1.34159e-11
1.34091e-11
1.34022e-11
1.33953e-11
1.33885e-11
1.34416e-11
1.34413e-11
1.34408e-11
1.344e-11
1.34389e-11
1.34376e-11
1.34359e-11
1.34339e-11
1.34316e-11
1.34289e-11
1.34258e-11
1.34224e-11
1.34187e-11
1.34147e-11
1.34104e-11
1.3406e-11
1.34013e-11
1.33967e-11
1.3392e-11
1.33875e-11
1.34233e-11
1.34231e-11
1.34228e-11
1.34222e-11
1.34215e-11
1.34206e-11
1.34194e-11
1.3418e-11
1.34165e-11
1.34146e-11
1.34126e-11
1.34103e-11
1.34077e-11
1.3405e-11
1.34022e-11
1.33992e-11
1.33961e-11
1.33929e-11
1.33898e-11
1.33868e-11
1.34108e-11
1.34107e-11
1.34104e-11
1.34101e-11
1.34096e-11
1.34089e-11
1.34082e-11
1.34072e-11
1.34062e-11
1.34049e-11
1.34035e-11
1.3402e-11
1.34003e-11
1.33985e-11
1.33966e-11
1.33946e-11
1.33925e-11
1.33904e-11
1.33883e-11
1.33863e-11
1.34023e-11
1.34022e-11
1.34021e-11
1.34018e-11
1.34015e-11
1.3401e-11
1.34005e-11
1.33999e-11
1.33992e-11
1.33983e-11
1.33974e-11
1.33964e-11
1.33953e-11
1.3394e-11
1.33928e-11
1.33914e-11
1.33901e-11
1.33887e-11
1.33873e-11
1.3386e-11
1.33966e-11
1.33965e-11
1.33964e-11
1.33962e-11
1.3396e-11
1.33957e-11
1.33954e-11
1.3395e-11
1.33945e-11
1.33939e-11
1.33933e-11
1.33926e-11
1.33919e-11
1.33911e-11
1.33902e-11
1.33893e-11
1.33884e-11
1.33875e-11
1.33866e-11
1.33857e-11
1.33927e-11
1.33927e-11
1.33926e-11
1.33925e-11
1.33923e-11
1.33922e-11
1.33919e-11
1.33916e-11
1.33913e-11
1.3391e-11
1.33906e-11
1.33901e-11
1.33896e-11
1.33891e-11
1.33885e-11
1.3388e-11
1.33874e-11
1.33868e-11
1.33862e-11
1.33856e-11
1.33902e-11
1.33901e-11
1.33901e-11
1.339e-11
1.33899e-11
1.33898e-11
1.33896e-11
1.33894e-11
1.33892e-11
1.3389e-11
1.33887e-11
1.33884e-11
1.33881e-11
1.33878e-11
1.33874e-11
1.3387e-11
1.33866e-11
1.33863e-11
1.33859e-11
1.33855e-11
1.33885e-11
1.33884e-11
1.33884e-11
1.33884e-11
1.33883e-11
1.33882e-11
1.33881e-11
1.3388e-11
1.33879e-11
1.33877e-11
1.33875e-11
1.33873e-11
1.33871e-11
1.33869e-11
1.33867e-11
1.33864e-11
1.33862e-11
1.33859e-11
1.33857e-11
1.33854e-11
1.33873e-11
1.33873e-11
1.33873e-11
1.33873e-11
1.33872e-11
1.33872e-11
1.33871e-11
1.3387e-11
1.33869e-11
1.33868e-11
1.33867e-11
1.33866e-11
1.33865e-11
1.33863e-11
1.33862e-11
1.3386e-11
1.33859e-11
1.33857e-11
1.33855e-11
1.33854e-11
1.33866e-11
1.33866e-11
1.33866e-11
1.33866e-11
1.33865e-11
1.33865e-11
1.33865e-11
1.33864e-11
1.33864e-11
1.33863e-11
1.33862e-11
1.33861e-11
1.33861e-11
1.3386e-11
1.33859e-11
1.33858e-11
1.33857e-11
1.33856e-11
1.33855e-11
1.33854e-11
1.33861e-11
1.33861e-11
1.33861e-11
1.33861e-11
1.33861e-11
1.33861e-11
1.3386e-11
1.3386e-11
1.3386e-11
1.33859e-11
1.33859e-11
1.33858e-11
1.33858e-11
1.33857e-11
1.33857e-11
1.33856e-11
1.33855e-11
1.33855e-11
1.33854e-11
1.33853e-11
1.33858e-11
1.33858e-11
1.33858e-11
1.33858e-11
1.33858e-11
1.33858e-11
1.33858e-11
1.33858e-11
1.33857e-11
1.33857e-11
1.33857e-11
1.33856e-11
1.33856e-11
1.33856e-11
1.33855e-11
1.33855e-11
1.33855e-11
1.33854e-11
1.33854e-11
1.33853e-11
1.33856e-11
1.33856e-11
1.33856e-11
1.33856e-11
1.33856e-11
1.33856e-11
1.33856e-11
1.33856e-11
1.33856e-11
1.33856e-11
1.33855e-11
1.33855e-11
1.33855e-11
1.33855e-11
1.33855e-11
1.33854e-11
1.33854e-11
1.33854e-11
1.33854e-11
1.33853e-11
1.33855e-11
1.33855e-11
1.33855e-11
1.33855e-11
1.33855e-11
1.33855e-11
1.33855e-11
1.33855e-11
1.33855e-11
1.33855e-11
1.33855e-11
1.33855e-11
1.33854e-11
1.33854e-11
1.33854e-11
1.33854e-11
1.33854e-11
1.33854e-11
1.33853e-11
1.33853e-11
1.33855e-11
1.33855e-11
1.33855e-11
1.33854e-11
1.33854e-11
1.33854e-11
1.33854e-11
1.33854e-11
1.33854e-11
1.33854e-11
1.33854e-11
1.33854e-11
1.33854e-11
1.33854e-11
1.33854e-11
1.33854e-11
1.33854e-11
1.33853e-11
1.33853e-11
1.33853e-11
1.33854e-11
1.33854e-11
1.33854e-11
1.33854e-11
1.33854e-11
1.33854e-11
1.33854e-11
1.33854e-11
1.33854e-11
1.33854e-11
1.33854e-11
1.33854e-11
1.33854e-11
1.33854e-11
1.33854e-11
1.33854e-11
1.33853e-11
1.33853e-11
1.33853e-11
1.33853e-11
1.33854e-11
1.33854e-11
1.33854e-11
1.33854e-11
1.33854e-11
1.33854e-11
1.33854e-11
1.33854e-11
1.33854e-11
1.33854e-11
1.33854e-11
1.33854e-11
1.33854e-11
1.33854e-11
1.33854e-11
1.33853e-11
1.33853e-11
1.33853e-11
1.33853e-11
1.33853e-11
)
;

boundaryField
{
    topWall
    {
        type            zeroGradient;
    }
    bottomWall
    {
        type            zeroGradient;
    }
    sideWallL
    {
        type            symmetry;
    }
    sideWallR
    {
        type            zeroGradient;
    }
    frontAndBack
    {
        type            empty;
    }
}


// ************************************************************************* //
