/*--------------------------------*- C++ -*----------------------------------*\
  =========                 |
  \\      /  F ield         | OpenFOAM: The Open Source CFD Toolbox
   \\    /   O peration     | Website:  https://openfoam.org
    \\  /    A nd           | Version:  7
     \\/     M anipulation  |
\*---------------------------------------------------------------------------*/
FoamFile
{
    version     2.0;
    format      ascii;
    class       volScalarField;
    location    "21";
    object      rhot1;
}
// * * * * * * * * * * * * * * * * * * * * * * * * * * * * * * * * * * * * * //

dimensions      [1 -3 0 0 0 0 0];

internalField   nonuniform List<scalar> 
900
(
0.000321929
0.000321728
0.000321307
0.00032063
0.000319633
0.000318226
0.000316276
0.000313596
0.000309921
0.000304876
0.000297924
0.000288292
0.000274852
0.000255945
0.00022913
0.000190934
0.00013734
6.90882e-05
1.17286e-05
2.2463e-08
2.16794e-05
2.16348e-05
2.15418e-05
2.13926e-05
2.11748e-05
2.08702e-05
2.04538e-05
1.9892e-05
1.9141e-05
1.81452e-05
1.68374e-05
1.51431e-05
1.29949e-05
1.03671e-05
7.34651e-06
4.24641e-06
1.68477e-06
3.13341e-07
1.08429e-08
6.59058e-12
1.5607e-06
1.55498e-06
1.54311e-06
1.52417e-06
1.49675e-06
1.45887e-06
1.40793e-06
1.34071e-06
1.25349e-06
1.14239e-06
1.00421e-06
8.38054e-07
6.47969e-07
4.46524e-07
2.57316e-07
1.1121e-07
2.97272e-08
3.46463e-09
9.47275e-11
2.75415e-13
1.2456e-07
1.23899e-07
1.22532e-07
1.20365e-07
1.17258e-07
1.13022e-07
1.07425e-07
1.00212e-07
9.11398e-08
8.00484e-08
6.69806e-08
5.2349e-08
3.7114e-08
2.28428e-08
1.14121e-08
4.17164e-09
9.51092e-10
1.06924e-10
4.45018e-12
6.94786e-14
1.14028e-08
1.13249e-08
1.11644e-08
1.09116e-08
1.05525e-08
1.00694e-08
9.44228e-09
8.65228e-09
7.68733e-09
6.55106e-09
5.27456e-09
3.92844e-09
2.62707e-09
1.5123e-09
7.06187e-10
2.46369e-10
5.76286e-11
7.99234e-12
6.12903e-13
3.4627e-14
1.23353e-09
1.22355e-09
1.20303e-09
1.17093e-09
1.12574e-09
1.06567e-09
9.88922e-10
8.94157e-10
7.81263e-10
6.52338e-10
5.12763e-10
3.71843e-10
2.42142e-10
1.3663e-10
6.37973e-11
2.33037e-11
6.26756e-12
1.18891e-12
1.6594e-13
2.3293e-14
1.61501e-10
1.60049e-10
1.57076e-10
1.52448e-10
1.45986e-10
1.37484e-10
1.26761e-10
1.1373e-10
9.84992e-11
8.14835e-11
6.35082e-11
4.58203e-11
2.99292e-11
1.72228e-11
8.45963e-12
3.43235e-12
1.12209e-12
2.9715e-13
6.94514e-14
1.82493e-14
2.60308e-11
2.5785e-11
2.52829e-11
2.45052e-11
2.34256e-11
2.20166e-11
2.02567e-11
1.81419e-11
1.57006e-11
1.30083e-11
1.01988e-11
7.45986e-12
5.00588e-12
3.02445e-12
1.61442e-12
7.5026e-13
3.0313e-13
1.09649e-13
3.87318e-14
1.55824e-14
5.21736e-12
5.16814e-12
5.06785e-12
4.91298e-12
4.69898e-12
4.42121e-12
4.07642e-12
3.66482e-12
3.19258e-12
2.67429e-12
2.13435e-12
1.60591e-12
1.1261e-12
7.2761e-13
4.29357e-13
2.30859e-13
1.1441e-13
5.41343e-14
2.61377e-14
1.40179e-14
1.3053e-12
1.29358e-12
1.26973e-12
1.23299e-12
1.18237e-12
1.11686e-12
1.0358e-12
9.39277e-13
8.28635e-13
7.06986e-13
5.79454e-13
4.5297e-13
3.35375e-13
2.33886e-13
1.53326e-13
9.49318e-14
5.63807e-14
3.30905e-14
2.00228e-14
1.30367e-14
4.07146e-13
4.03836e-13
3.97105e-13
3.86746e-13
3.72492e-13
3.54072e-13
3.31291e-13
3.04142e-13
2.72932e-13
2.38396e-13
2.0177e-13
1.64758e-13
1.29343e-13
9.74652e-14
7.06232e-14
4.95529e-14
3.41328e-14
2.35586e-14
1.66895e-14
1.23933e-14
1.57453e-13
1.56353e-13
1.54118e-13
1.50679e-13
1.45949e-13
1.39835e-13
1.32264e-13
1.23215e-13
1.12757e-13
1.01078e-13
8.85176e-14
7.55563e-14
6.27807e-14
5.08029e-14
4.01564e-14
3.11997e-14
2.40614e-14
1.86502e-14
1.47203e-14
1.19584e-14
7.46276e-14
7.4204e-14
7.33428e-14
7.2018e-14
7.01951e-14
6.78362e-14
6.49087e-14
6.13958e-14
5.73088e-14
5.26995e-14
4.76694e-14
4.23718e-14
3.70036e-14
3.1784e-14
2.69241e-14
2.25949e-14
1.89022e-14
1.58779e-14
1.3489e-14
1.16582e-14
4.24794e-14
4.22934e-14
4.19153e-14
4.13335e-14
4.05323e-14
3.9494e-14
3.82022e-14
3.66455e-14
3.48225e-14
3.27467e-14
3.04509e-14
2.79885e-14
2.54328e-14
2.28706e-14
2.03931e-14
1.80836e-14
1.60073e-14
1.42042e-14
1.26876e-14
1.14479e-14
2.82008e-14
2.81095e-14
2.79239e-14
2.76382e-14
2.72445e-14
2.67337e-14
2.60965e-14
2.53257e-14
2.44178e-14
2.33755e-14
2.22094e-14
2.09397e-14
1.95959e-14
1.82153e-14
1.68401e-14
1.55127e-14
1.42709e-14
1.3144e-14
1.21509e-14
1.12992e-14
2.11101e-14
2.1061e-14
2.09611e-14
2.08072e-14
2.05952e-14
2.03197e-14
1.99755e-14
1.95578e-14
1.90636e-14
1.84925e-14
1.78479e-14
1.71375e-14
1.63742e-14
1.55752e-14
1.47613e-14
1.39547e-14
1.31775e-14
1.24489e-14
1.17841e-14
1.11933e-14
1.72589e-14
1.72304e-14
1.71725e-14
1.70834e-14
1.69604e-14
1.68006e-14
1.66008e-14
1.63578e-14
1.60693e-14
1.57343e-14
1.53537e-14
1.49306e-14
1.44709e-14
1.3983e-14
1.34777e-14
1.29672e-14
1.24644e-14
1.19818e-14
1.153e-14
1.11177e-14
1.50156e-14
1.49981e-14
1.49626e-14
1.49078e-14
1.48324e-14
1.47343e-14
1.46116e-14
1.44623e-14
1.42846e-14
1.40777e-14
1.38416e-14
1.35775e-14
1.32882e-14
1.29783e-14
1.26534e-14
1.23206e-14
1.19876e-14
1.16624e-14
1.13522e-14
1.10636e-14
1.36373e-14
1.36261e-14
1.36032e-14
1.35681e-14
1.35198e-14
1.3457e-14
1.33784e-14
1.32828e-14
1.31689e-14
1.30361e-14
1.28841e-14
1.27135e-14
1.25256e-14
1.2323e-14
1.21088e-14
1.18873e-14
1.16632e-14
1.14415e-14
1.12272e-14
1.10249e-14
1.2756e-14
1.27485e-14
1.27334e-14
1.27102e-14
1.26782e-14
1.26367e-14
1.25848e-14
1.25217e-14
1.24466e-14
1.23589e-14
1.22585e-14
1.21455e-14
1.20207e-14
1.18855e-14
1.17418e-14
1.15922e-14
1.14397e-14
1.12875e-14
1.1139e-14
1.09972e-14
1.21758e-14
1.21707e-14
1.21605e-14
1.21448e-14
1.21231e-14
1.20951e-14
1.20601e-14
1.20176e-14
1.1967e-14
1.1908e-14
1.18404e-14
1.17643e-14
1.16801e-14
1.15886e-14
1.14911e-14
1.13892e-14
1.12847e-14
1.11798e-14
1.10766e-14
1.09775e-14
1.17859e-14
1.17824e-14
1.17753e-14
1.17645e-14
1.17497e-14
1.17304e-14
1.17065e-14
1.16774e-14
1.16429e-14
1.16027e-14
1.15566e-14
1.15047e-14
1.14473e-14
1.13849e-14
1.13183e-14
1.12485e-14
1.11766e-14
1.11042e-14
1.10326e-14
1.09634e-14
1.15201e-14
1.15176e-14
1.15127e-14
1.15052e-14
1.14949e-14
1.14816e-14
1.14651e-14
1.1445e-14
1.14213e-14
1.13936e-14
1.1362e-14
1.13264e-14
1.12871e-14
1.12443e-14
1.11986e-14
1.11506e-14
1.11011e-14
1.10511e-14
1.10016e-14
1.09535e-14
1.13372e-14
1.13355e-14
1.13321e-14
1.13269e-14
1.13197e-14
1.13105e-14
1.1299e-14
1.12851e-14
1.12686e-14
1.12496e-14
1.12278e-14
1.12033e-14
1.11763e-14
1.11469e-14
1.11155e-14
1.10825e-14
1.10485e-14
1.1014e-14
1.09798e-14
1.09465e-14
1.12108e-14
1.12096e-14
1.12072e-14
1.12036e-14
1.11986e-14
1.11921e-14
1.11841e-14
1.11745e-14
1.11631e-14
1.11499e-14
1.11349e-14
1.11181e-14
1.10995e-14
1.10793e-14
1.10577e-14
1.10351e-14
1.10117e-14
1.09881e-14
1.09645e-14
1.09416e-14
1.11232e-14
1.11224e-14
1.11207e-14
1.11181e-14
1.11147e-14
1.11102e-14
1.11046e-14
1.10979e-14
1.10901e-14
1.1081e-14
1.10706e-14
1.1059e-14
1.10463e-14
1.10324e-14
1.10177e-14
1.10022e-14
1.09862e-14
1.097e-14
1.09539e-14
1.09381e-14
1.10625e-14
1.10619e-14
1.10608e-14
1.1059e-14
1.10566e-14
1.10534e-14
1.10496e-14
1.1045e-14
1.10395e-14
1.10333e-14
1.10262e-14
1.10182e-14
1.10095e-14
1.1e-14
1.099e-14
1.09794e-14
1.09685e-14
1.09575e-14
1.09465e-14
1.09357e-14
1.10205e-14
1.10201e-14
1.10193e-14
1.10181e-14
1.10164e-14
1.10142e-14
1.10116e-14
1.10084e-14
1.10047e-14
1.10004e-14
1.09955e-14
1.09901e-14
1.09842e-14
1.09777e-14
1.09709e-14
1.09637e-14
1.09563e-14
1.09488e-14
1.09414e-14
1.09341e-14
1.09916e-14
1.09913e-14
1.09908e-14
1.09899e-14
1.09887e-14
1.09873e-14
1.09854e-14
1.09833e-14
1.09807e-14
1.09778e-14
1.09745e-14
1.09708e-14
1.09668e-14
1.09624e-14
1.09578e-14
1.09529e-14
1.09479e-14
1.09429e-14
1.09378e-14
1.09329e-14
1.09717e-14
1.09715e-14
1.09712e-14
1.09706e-14
1.09698e-14
1.09688e-14
1.09675e-14
1.0966e-14
1.09643e-14
1.09623e-14
1.09601e-14
1.09576e-14
1.09549e-14
1.09519e-14
1.09488e-14
1.09456e-14
1.09422e-14
1.09388e-14
1.09355e-14
1.09322e-14
1.09582e-14
1.0958e-14
1.09578e-14
1.09574e-14
1.09568e-14
1.09562e-14
1.09553e-14
1.09543e-14
1.09531e-14
1.09518e-14
1.09503e-14
1.09486e-14
1.09468e-14
1.09448e-14
1.09427e-14
1.09406e-14
1.09383e-14
1.09361e-14
1.09338e-14
1.09316e-14
1.0949e-14
1.09489e-14
1.09487e-14
1.09484e-14
1.09481e-14
1.09476e-14
1.0947e-14
1.09464e-14
1.09456e-14
1.09447e-14
1.09437e-14
1.09425e-14
1.09413e-14
1.094e-14
1.09386e-14
1.09372e-14
1.09357e-14
1.09342e-14
1.09327e-14
1.09313e-14
1.09427e-14
1.09427e-14
1.09426e-14
1.09424e-14
1.09421e-14
1.09418e-14
1.09415e-14
1.0941e-14
1.09405e-14
1.09399e-14
1.09392e-14
1.09385e-14
1.09377e-14
1.09368e-14
1.09359e-14
1.09349e-14
1.0934e-14
1.0933e-14
1.0932e-14
1.0931e-14
1.09386e-14
1.09385e-14
1.09385e-14
1.09383e-14
1.09382e-14
1.0938e-14
1.09377e-14
1.09374e-14
1.09371e-14
1.09367e-14
1.09362e-14
1.09357e-14
1.09352e-14
1.09347e-14
1.09341e-14
1.09334e-14
1.09328e-14
1.09321e-14
1.09315e-14
1.09309e-14
1.09358e-14
1.09358e-14
1.09357e-14
1.09356e-14
1.09355e-14
1.09354e-14
1.09352e-14
1.0935e-14
1.09348e-14
1.09346e-14
1.09343e-14
1.09339e-14
1.09336e-14
1.09332e-14
1.09328e-14
1.09324e-14
1.0932e-14
1.09316e-14
1.09312e-14
1.09308e-14
1.0934e-14
1.0934e-14
1.09339e-14
1.09339e-14
1.09338e-14
1.09337e-14
1.09336e-14
1.09335e-14
1.09333e-14
1.09331e-14
1.0933e-14
1.09328e-14
1.09325e-14
1.09323e-14
1.0932e-14
1.09318e-14
1.09315e-14
1.09312e-14
1.0931e-14
1.09307e-14
1.09328e-14
1.09327e-14
1.09327e-14
1.09327e-14
1.09326e-14
1.09326e-14
1.09325e-14
1.09324e-14
1.09323e-14
1.09322e-14
1.09321e-14
1.0932e-14
1.09318e-14
1.09317e-14
1.09315e-14
1.09313e-14
1.09312e-14
1.0931e-14
1.09308e-14
1.09307e-14
1.0932e-14
1.0932e-14
1.0932e-14
1.09319e-14
1.09319e-14
1.09319e-14
1.09318e-14
1.09318e-14
1.09317e-14
1.09316e-14
1.09316e-14
1.09315e-14
1.09314e-14
1.09313e-14
1.09312e-14
1.09311e-14
1.0931e-14
1.09308e-14
1.09307e-14
1.09306e-14
1.09315e-14
1.09315e-14
1.09314e-14
1.09314e-14
1.09314e-14
1.09314e-14
1.09314e-14
1.09313e-14
1.09313e-14
1.09312e-14
1.09312e-14
1.09311e-14
1.09311e-14
1.0931e-14
1.0931e-14
1.09309e-14
1.09308e-14
1.09307e-14
1.09307e-14
1.09306e-14
1.09311e-14
1.09311e-14
1.09311e-14
1.09311e-14
1.09311e-14
1.09311e-14
1.09311e-14
1.09311e-14
1.0931e-14
1.0931e-14
1.0931e-14
1.09309e-14
1.09309e-14
1.09309e-14
1.09308e-14
1.09308e-14
1.09307e-14
1.09307e-14
1.09306e-14
1.09306e-14
1.09309e-14
1.09309e-14
1.09309e-14
1.09309e-14
1.09309e-14
1.09309e-14
1.09309e-14
1.09309e-14
1.09309e-14
1.09308e-14
1.09308e-14
1.09308e-14
1.09308e-14
1.09308e-14
1.09307e-14
1.09307e-14
1.09307e-14
1.09306e-14
1.09306e-14
1.09306e-14
1.09308e-14
1.09308e-14
1.09308e-14
1.09308e-14
1.09308e-14
1.09308e-14
1.09308e-14
1.09308e-14
1.09308e-14
1.09307e-14
1.09307e-14
1.09307e-14
1.09307e-14
1.09307e-14
1.09307e-14
1.09307e-14
1.09306e-14
1.09306e-14
1.09306e-14
1.09306e-14
1.09307e-14
1.09307e-14
1.09307e-14
1.09307e-14
1.09307e-14
1.09307e-14
1.09307e-14
1.09307e-14
1.09307e-14
1.09307e-14
1.09307e-14
1.09307e-14
1.09307e-14
1.09306e-14
1.09306e-14
1.09306e-14
1.09306e-14
1.09306e-14
1.09306e-14
1.09306e-14
1.09307e-14
1.09307e-14
1.09307e-14
1.09307e-14
1.09307e-14
1.09307e-14
1.09307e-14
1.09307e-14
1.09307e-14
1.09306e-14
1.09306e-14
1.09306e-14
1.09306e-14
1.09306e-14
1.09306e-14
1.09306e-14
1.09306e-14
1.09306e-14
1.09306e-14
1.09306e-14
1.09307e-14
1.09307e-14
1.09307e-14
1.09307e-14
1.09307e-14
1.09306e-14
1.09306e-14
1.09306e-14
1.09306e-14
1.09306e-14
1.09306e-14
1.09306e-14
1.09306e-14
1.09306e-14
1.09306e-14
1.09306e-14
1.09306e-14
1.09306e-14
1.09306e-14
1.09306e-14
)
;

boundaryField
{
    topWall
    {
        type            zeroGradient;
    }
    bottomWall
    {
        type            zeroGradient;
    }
    sideWallL
    {
        type            symmetry;
    }
    sideWallR
    {
        type            calculated;
        value           uniform 0;
    }
    frontAndBack
    {
        type            empty;
    }
}


// ************************************************************************* //
