/*--------------------------------*- C++ -*----------------------------------*\
  =========                 |
  \\      /  F ield         | OpenFOAM: The Open Source CFD Toolbox
   \\    /   O peration     | Website:  https://openfoam.org
    \\  /    A nd           | Version:  7
     \\/     M anipulation  |
\*---------------------------------------------------------------------------*/
FoamFile
{
    version     2.0;
    format      ascii;
    class       volScalarField;
    location    "21";
    object      T;
}
// * * * * * * * * * * * * * * * * * * * * * * * * * * * * * * * * * * * * * //

dimensions      [0 0 0 1 0 0 0];

internalField   nonuniform List<scalar> 
900
(
465.421
465.412
465.395
465.366
465.325
465.266
465.185
465.073
464.92
464.707
464.411
463.992
463.389
462.496
461.123
458.889
454.92
446.881
427.384
369.893
435.04
435.016
434.965
434.884
434.764
434.596
434.364
434.046
433.609
433.008
432.173
431.003
429.334
426.905
423.269
417.625
408.457
392.758
364.566
313.499
408.862
408.824
408.744
408.616
408.428
408.165
407.803
407.309
406.635
405.714
404.449
402.695
400.238
396.748
391.707
384.288
373.166
356.292
330.884
294.688
386.382
386.332
386.228
386.062
385.82
385.482
385.018
384.389
383.538
382.386
380.823
378.693
375.77
371.733
366.118
358.27
347.296
332.119
311.799
286.527
367.153
367.095
366.974
366.78
366.498
366.106
365.573
364.854
363.891
362.602
360.879
358.57
355.474
351.319
345.746
338.306
328.486
315.821
300.165
282.178
350.779
350.715
350.583
350.372
350.066
349.643
349.071
348.307
347.294
345.955
344.19
341.87
338.827
334.852
329.695
323.079
314.743
304.54
292.6
279.524
336.904
336.837
336.7
336.481
336.166
335.733
335.152
334.381
333.37
332.052
330.34
328.129
325.291
321.675
317.119
311.464
304.601
296.527
287.43
277.766
325.208
325.142
325.004
324.787
324.476
324.05
323.482
322.737
321.77
320.524
318.931
316.907
314.36
311.186
307.287
302.582
297.038
290.707
283.767
276.539
315.405
315.341
315.208
315
314.702
314.297
313.762
313.065
312.17
311.032
309.595
307.8
305.58
302.869
299.609
295.766
291.343
286.408
281.104
275.656
307.236
307.176
307.052
306.857
306.581
306.207
305.716
305.083
304.278
303.265
302.004
300.451
298.561
296.292
293.615
290.518
287.022
283.189
279.132
275.005
300.472
300.417
300.304
300.126
299.876
299.539
299.1
298.539
297.831
296.951
295.868
294.552
292.972
291.105
288.936
286.467
283.723
280.757
277.653
274.519
294.906
294.857
294.756
294.598
294.376
294.079
293.695
293.207
292.599
291.848
290.936
289.839
288.54
287.024
285.287
283.336
281.196
278.908
276.535
274.153
290.357
290.313
290.225
290.087
289.894
289.638
289.308
288.892
288.378
287.749
286.992
286.092
285.038
283.822
282.445
280.916
279.255
277.496
275.685
273.875
286.663
286.626
286.55
286.432
286.267
286.049
285.771
285.423
284.994
284.476
283.857
283.128
282.282
281.317
280.235
279.044
277.763
276.416
275.036
273.663
283.685
283.653
283.589
283.49
283.351
283.169
282.938
282.65
282.299
281.877
281.378
280.794
280.123
279.364
278.52
277.6
276.616
275.588
274.541
273.501
281.3
281.274
281.22
281.138
281.024
280.874
280.684
280.45
280.166
279.827
279.428
278.966
278.439
277.848
277.194
276.487
275.736
274.955
274.163
273.378
279.404
279.383
279.339
279.271
279.178
279.057
278.903
278.715
278.488
278.219
277.904
277.542
277.132
276.674
276.172
275.632
275.061
274.471
273.874
273.284
277.908
277.89
277.855
277.801
277.726
277.628
277.506
277.356
277.176
276.965
276.719
276.438
276.121
275.77
275.388
274.978
274.547
274.103
273.655
273.213
276.735
276.721
276.693
276.65
276.59
276.513
276.416
276.299
276.158
275.994
275.804
275.587
275.345
275.078
274.788
274.479
274.155
273.823
273.488
273.159
275.823
275.812
275.79
275.756
275.709
275.648
275.573
275.482
275.373
275.246
275.101
274.936
274.752
274.55
274.332
274.1
273.858
273.611
273.362
273.118
275.119
275.11
275.093
275.066
275.03
274.983
274.925
274.855
274.771
274.675
274.564
274.439
274.301
274.149
273.986
273.814
273.634
273.451
273.267
273.087
274.579
274.573
274.559
274.539
274.511
274.475
274.43
274.377
274.313
274.24
274.157
274.063
273.96
273.847
273.726
273.598
273.466
273.331
273.196
273.064
274.169
274.163
274.153
274.138
274.116
274.089
274.055
274.015
273.967
273.913
273.85
273.781
273.704
273.621
273.531
273.438
273.341
273.242
273.143
273.046
273.859
273.855
273.847
273.835
273.819
273.799
273.773
273.743
273.708
273.667
273.621
273.569
273.513
273.452
273.387
273.318
273.247
273.176
273.104
273.034
273.626
273.623
273.618
273.609
273.597
273.582
273.563
273.54
273.514
273.484
273.45
273.413
273.371
273.327
273.279
273.23
273.179
273.127
273.075
273.024
273.454
273.451
273.447
273.441
273.432
273.42
273.407
273.39
273.371
273.349
273.324
273.297
273.267
273.235
273.201
273.165
273.128
273.091
273.054
273.017
273.326
273.325
273.321
273.317
273.31
273.302
273.292
273.28
273.266
273.25
273.232
273.212
273.191
273.168
273.143
273.118
273.091
273.065
273.038
273.012
273.233
273.232
273.229
273.226
273.221
273.215
273.208
273.199
273.189
273.178
273.165
273.151
273.135
273.119
273.102
273.083
273.065
273.046
273.027
273.009
273.165
273.164
273.162
273.16
273.157
273.152
273.147
273.141
273.134
273.126
273.116
273.106
273.095
273.084
273.071
273.059
273.045
273.032
273.019
273.006
273.116
273.115
273.114
273.112
273.11
273.107
273.103
273.099
273.094
273.088
273.082
273.074
273.067
273.059
273.05
273.041
273.032
273.023
273.013
273.004
273.081
273.081
273.08
273.078
273.077
273.075
273.072
273.069
273.065
273.061
273.057
273.052
273.046
273.041
273.035
273.028
273.022
273.016
273.009
273.003
273.056
273.056
273.055
273.054
273.053
273.052
273.05
273.048
273.045
273.042
273.039
273.036
273.032
273.028
273.024
273.02
273.015
273.011
273.006
273.002
273.039
273.038
273.038
273.037
273.037
273.035
273.034
273.033
273.031
273.029
273.027
273.025
273.022
273.019
273.016
273.013
273.01
273.007
273.004
273.001
273.026
273.026
273.026
273.025
273.025
273.024
273.023
273.022
273.021
273.02
273.018
273.017
273.015
273.013
273.011
273.009
273.007
273.005
273.003
273.001
273.018
273.018
273.018
273.017
273.017
273.016
273.016
273.015
273.014
273.013
273.012
273.011
273.01
273.009
273.008
273.006
273.005
273.003
273.002
273.001
273.012
273.012
273.012
273.012
273.011
273.011
273.011
273.01
273.01
273.009
273.008
273.008
273.007
273.006
273.005
273.004
273.003
273.002
273.001
273
273.008
273.008
273.008
273.008
273.008
273.007
273.007
273.007
273.006
273.006
273.006
273.005
273.005
273.004
273.003
273.003
273.002
273.002
273.001
273
273.005
273.005
273.005
273.005
273.005
273.005
273.005
273.004
273.004
273.004
273.004
273.003
273.003
273.003
273.002
273.002
273.001
273.001
273.001
273
273.003
273.003
273.003
273.003
273.003
273.003
273.003
273.003
273.003
273.003
273.002
273.002
273.002
273.002
273.001
273.001
273.001
273.001
273
273
273.002
273.002
273.002
273.002
273.002
273.002
273.002
273.002
273.002
273.002
273.002
273.001
273.001
273.001
273.001
273.001
273.001
273
273
273
273.001
273.001
273.001
273.001
273.001
273.001
273.001
273.001
273.001
273.001
273.001
273.001
273.001
273.001
273.001
273.001
273
273
273
273
273.001
273.001
273.001
273.001
273.001
273.001
273.001
273.001
273.001
273.001
273.001
273.001
273.001
273
273
273
273
273
273
273
273.001
273.001
273.001
273.001
273.001
273.001
273.001
273.001
273.001
273
273
273
273
273
273
273
273
273
273
273
273
273
273
273
273
273
273
273
273
273
273
273
273
273
273
273
273
273
273
273
273
273
273
273
273
273
273
273
273
273
273
273
273
273
273
273
273
273
273
273
)
;

boundaryField
{
    topWall
    {
        type            zeroGradient;
    }
    bottomWall
    {
        type            codedFixedValue;
        value           uniform 483;
        name            heating;
        code            #{
            const scalar t = this->db().time().value();
            const scalar Ttemp = 273 + 10*t;
            operator==(Ttemp);
        #};
    }
    sideWallL
    {
        type            symmetry;
    }
    sideWallR
    {
        type            fixedValue;
        value           uniform 273;
    }
    frontAndBack
    {
        type            empty;
    }
}


// ************************************************************************* //
