/*--------------------------------*- C++ -*----------------------------------*\
  =========                 |
  \\      /  F ield         | OpenFOAM: The Open Source CFD Toolbox
   \\    /   O peration     | Website:  https://openfoam.org
    \\  /    A nd           | Version:  7
     \\/     M anipulation  |
\*---------------------------------------------------------------------------*/
FoamFile
{
    version     2.0;
    format      ascii;
    class       volScalarField;
    location    "38";
    object      gradTx;
}
// * * * * * * * * * * * * * * * * * * * * * * * * * * * * * * * * * * * * * //

dimensions      [0 -1 0 1 0 0 0];

internalField   nonuniform List<scalar> 
900
(
-118.228
-360.758
-621.952
-915.752
-1258.52
-1670.38
-2176.98
-2811.91
-3620.2
-4663.53
-6028.43
-7841.15
-10299.9
-13763.2
-19043.7
-28504.6
-50235.5
-114890
-342066
-1.10052e+06
-253.412
-773.458
-1334.19
-1966.26
-2706.08
-3599.23
-4705.07
-6103.68
-7906.39
-10272.7
-13438.5
-17767.2
-23846.5
-32692.6
-46215.2
-68374.9
-108227
-187503
-345262
-573831
-357.641
-1091.36
-1881.81
-2771.66
-3811.56
-5064.75
-6613.46
-8568.31
-11082.6
-14374.5
-18764
-24733.8
-33036.4
-44883
-62276.2
-88556.7
-129073
-190824
-275207
-350859
-460.223
-1403.62
-2417.49
-3554.49
-4876.4
-6459.31
-8400.47
-10828
-13914.6
-17898.4
-23113.2
-30033.7
-39341.7
-52014.7
-69420.5
-93327.9
-125528
-166229
-209650
-236955
-544.393
-1659.01
-2852.78
-4184.16
-5720.73
-7543.99
-9755.5
-12485
-15901.3
-20226.3
-25753.6
-32870.2
-42078.1
-54000.2
-69334
-88663.7
-111953
-137464
-160072
-170352
-605.18
-1842.53
-3162.37
-4624.84
-6298.15
-8262.58
-10615.2
-13475.5
-16992
-21349.8
-26776.7
-33546.6
-41970.6
-52362.5
-64948.2
-79673.4
-95854.6
-111669
-123719
-127437
-642.242
-1953.37
-3345.66
-4877.43
-6613.49
-8627.97
-11007.5
-13854.2
-17288.7
-21451.6
-26501.8
-32608.3
-39928.4
-48563.4
-58475.3
-69351.9
-80420.8
-90266.8
-96823.6
-97845.9
-657.232
-1996.8
-3412.59
-4958.56
-6693.28
-8681.78
-10997.1
-13721.5
-16946.2
-20769.3
-25290.2
-30596
-36739.2
-43697.8
-51316.5
-59228.4
-66773.4
-72961.9
-76568.6
-76456.3
-652.949
-1981.59
-3379.09
-4893.38
-6575.31
-8479.48
-10664.7
-13193.6
-16130.8
-19539.2
-23472.1
-27960.8
-32994.8
-38493.2
-44268.2
-49985.8
-55140.2
-59068.4
-61044.2
-60471.6
-632.819
-1918.39
-3264.09
-4711.09
-6301.99
-8080.97
-10093.4
-12384.7
-14997.7
-17968
-21317.3
-25042.4
-29100.7
-33391.3
-37735.7
-41861
-45398.7
-47912
-48965.9
-48237.8
-600.479
-1818.39
-3087.26
-4441.42
-5915.47
-7543.98
-9360.67
-11396.7
-13678.2
-16221.8
-19029
-22077.8
-25313.1
-28635.6
-31892.1
-34871.7
-37312.8
-38928.5
-39454.4
-38710.7
-559.45
-1692.38
-2867.37
-4112.26
-5454.38
-6919.97
-8533.11
-10314.1
-12276.8
-14425.6
-16750.1
-19220.5
-21780.3
-24341.4
-26779.8
-28937.3
-30630.1
-31669.7
-31892.5
-31196.1
-512.925
-1550.11
-2621.16
-3748.09
-4951.93
-6252.02
-7664.87
-9202.68
-10871.2
-12667.1
-14574.6
-16561.8
-18577.1
-20546.4
-22372.9
-23939.8
-25119
-25785.3
-25836.2
-25212.4
-463.639
-1399.86
-2362.72
-3369.22
-4435.15
-5574.3
-6797.47
-8111.18
-9515.95
-11004.4
-12558.7
-14148.9
-15730.3
-17243.1
-18612.9
-19754.6
-20578.7
-21001.6
-20958.3
-20413.9
-413.813
-1248.34
-2103.35
-2991.68
-3924.86
-4912.42
-5960.98
-7073.21
-8246.56
-9471.82
-10731.6
-11999.3
-13237.7
-14399.6
-15428.7
-16263.2
-16840.4
-17104.3
-17012.9
-16545.8
-365.16
-1100.69
-1851.62
-2627.4
-3436.24
-4284.44
-5175.68
-6110.19
-7083.78
-8086.91
-9103.75
-10111.5
-11080.1
-11972.8
-12747.4
-13359.1
-13764
-13924.1
-13812
-13415.9
-318.924
-960.614
-1613.61
-2284.7
-2979.54
-3702.07
-4453.98
-5234.01
-6037.34
-6854.91
-7672.89
-8472.36
-9229.43
-9915.79
-10500
-10949.5
-11233.6
-11326.2
-11209.5
-10876.5
-275.938
-830.578
-1393.31
-1968.87
-2561
-3171.96
-3802.13
-4449.49
-5109.14
-5772.92
-6429.12
-7062.38
-7653.89
-8182.04
-8623.46
-8954.61
-9153.71
-9202.93
-9090.56
-8812.7
-236.699
-712.028
-1192.98
-1682.75
-2183.66
-2696.85
-3221.87
-3756.36
-4295.72
-4832.86
-5358.06
-5859.02
-6321.08
-6727.84
-7061.97
-7306.38
-7445.66
-7467.5
-7364.19
-7133.65
-201.432
-605.599
-1013.54
-1427.29
-1848.21
-2276.64
-2711.69
-3150.94
-3590.26
-4023.62
-4443.11
-4838.97
-5199.87
-5513.39
-5766.7
-5947.4
-6044.53
-6049.58
-5957.44
-5767.13
-170.157
-511.314
-854.881
-1202.08
-1553.58
-1909.23
-2267.93
-2627.36
-2983.92
-3332.61
-3667.03
-3979.51
-4261.35
-4503.18
-4695.49
-4829.27
-4896.71
-4891.91
-4811.51
-4655.12
-142.75
-428.759
-716.202
-1005.73
-1297.55
-1591.23
-1885.58
-2178.51
-2466.95
-2746.77
-3012.89
-3259.31
-3479.36
-3665.99
-3812.16
-3911.32
-3957.89
-3947.76
-3878.72
-3750.76
-118.982
-357.223
-596.217
-836.229
-1077.17
-1318.46
-1558.94
-1796.76
-2029.34
-2253.34
-2464.73
-2658.84
-2830.59
-2974.67
-3085.88
-3159.44
-3191.36
-3178.79
-3120.28
-3016
-98.5649
-295.812
-493.355
-691.203
-889.094
-1086.4
-1282.03
-1474.39
-1661.35
-1840.22
-2007.82
-2160.56
-2294.54
-2405.79
-2490.46
-2545.07
-2566.76
-2553.54
-2504.47
-2419.82
-81.1759
-243.542
-405.906
-568.126
-729.848
-890.44
-1048.93
-1203.96
-1353.79
-1496.27
-1628.91
-1748.93
-1853.38
-1939.28
-2003.78
-2044.33
-2058.91
-2046.1
-2005.32
-1936.87
-66.4825
-199.398
-332.133
-464.457
-595.983
-726.113
-853.997
-978.503
-1098.21
-1211.42
-1316.17
-1410.35
-1491.71
-1558.02
-1607.17
-1637.3
-1646.95
-1635.15
-1601.53
-1546.38
-54.1576
-162.388
-270.339
-377.741
-484.21
-589.2
-691.982
-791.62
-886.968
-976.683
-1059.25
-1133.04
-1196.35
-1247.51
-1284.96
-1307.35
-1313.62
-1303.11
-1275.59
-1231.32
-43.89
-131.569
-218.924
-305.68
-391.472
-475.82
-558.106
-637.565
-713.277
-784.188
-849.124
-906.835
-956.039
-995.486
-1024.02
-1040.66
-1044.64
-1035.5
-1013.11
-977.703
-35.3913
-106.068
-176.415
-246.165
-314.989
-382.47
-448.095
-511.239
-571.173
-627.069
-678.022
-723.076
-761.264
-791.652
-813.386
-825.744
-828.184
-820.386
-802.281
-774.071
-28.3997
-85.0972
-141.479
-197.3
-252.271
-306.037
-358.174
-408.179
-455.473
-499.411
-539.296
-574.399
-603.991
-627.374
-643.918
-653.095
-654.518
-647.965
-633.405
-611.01
-22.6817
-67.9513
-112.932
-157.407
-201.125
-243.79
-285.055
-324.515
-361.717
-396.157
-427.299
-454.591
-477.482
-495.452
-508.036
-514.848
-515.611
-510.173
-498.526
-480.812
-18.0318
-54.0118
-89.7359
-125.016
-159.639
-193.36
-225.896
-256.928
-286.096
-313.013
-337.266
-358.437
-376.112
-389.902
-399.464
-404.518
-404.864
-400.399
-391.129
-377.169
-14.2712
-42.7412
-70.9898
-98.8569
-126.165
-152.712
-178.272
-202.59
-225.387
-246.362
-265.2
-281.585
-295.204
-305.77
-313.028
-316.775
-316.867
-313.235
-305.892
-294.931
-11.2466
-33.678
-55.9216
-77.8432
-99.2957
-120.116
-140.123
-159.115
-176.876
-193.173
-207.767
-220.417
-230.89
-238.972
-244.475
-247.25
-247.196
-244.266
-238.475
-229.899
-8.82718
-26.4299
-43.8755
-61.0532
-77.8427
-94.1127
-109.719
-124.504
-138.299
-150.926
-162.202
-171.946
-179.984
-186.155
-190.321
-192.375
-192.244
-189.898
-185.35
-178.663
-6.90294
-20.6661
-34.2996
-47.7126
-60.808
-73.4804
-85.6158
-97.0914
-107.776
-117.534
-126.227
-133.717
-139.873
-144.578
-147.729
-149.249
-149.085
-147.217
-143.659
-138.461
-5.38188
-16.1107
-26.7335
-37.1767
-47.3621
-57.2059
-66.6185
-75.504
-83.7616
-91.287
-97.9749
-103.722
-108.431
-112.014
-114.396
-115.519
-115.348
-113.869
-111.094
-107.063
-4.18793
-12.5354
-20.7969
-28.9131
-36.8214
-44.4555
-51.745
-58.6154
-64.989
-70.7861
-75.927
-80.3337
-83.9335
-86.6608
-88.4608
-89.2918
-89.1279
-87.961
-85.8018
-82.6805
-3.25877
-9.75335
-16.1786
-22.4866
-28.6278
-34.5494
-40.1965
-45.511
-50.4331
-54.9018
-58.8565
-62.2387
-64.9935
-67.0724
-68.4349
-69.0508
-68.9015
-67.9821
-66.3018
-63.8843
-2.54399
-7.6134
-12.6268
-17.5459
-22.3308
-26.94
-31.33
-35.4558
-39.271
-42.7289
-45.7831
-48.3893
-50.5064
-52.098
-53.1341
-53.5926
-53.4603
-52.7344
-51.4226
-49.5436
-2.00337
-5.99503
-9.94123
-13.811
-17.5722
-21.1918
-24.6354
-27.8675
-30.8518
-33.5522
-35.9331
-37.9604
-39.6029
-40.8332
-41.6289
-41.9737
-41.8581
-41.2805
-40.2475
-38.7738
-1.60553
-4.80416
-7.96535
-11.0636
-14.0729
-16.9662
-19.7159
-22.2934
-24.6702
-26.8175
-28.7075
-30.3136
-31.6117
-32.5807
-33.2034
-33.4677
-33.3665
-32.8993
-32.0714
-30.8949
-1.32673
-3.96967
-6.58092
-9.13901
-11.622
-14.0074
-16.2722
-18.3929
-20.346
-22.1082
-23.6567
-24.9704
-26.0297
-26.818
-27.3217
-27.5313
-27.4415
-27.0522
-26.3682
-25.3993
-1.14996
-3.4406
-5.70326
-7.91904
-10.0687
-12.1325
-14.0906
-15.9225
-17.6079
-19.127
-20.4603
-21.5897
-22.4989
-23.1737
-23.6029
-23.7786
-23.6967
-23.3571
-22.7642
-21.9267
-1.06427
-3.1841
-5.27779
-7.32768
-9.31581
-11.2239
-13.0334
-14.7255
-16.2815
-17.683
-18.9123
-19.9528
-20.7895
-21.4097
-21.8031
-21.9626
-21.8846
-21.5692
-21.0205
-20.2466
)
;

boundaryField
{
    topWall
    {
        type            calculated;
        value           nonuniform List<scalar> 
20
(
-1.06427
-3.1841
-5.27779
-7.32768
-9.31581
-11.2239
-13.0334
-14.7255
-16.2815
-17.683
-18.9123
-19.9528
-20.7895
-21.4097
-21.8031
-21.9626
-21.8846
-21.5692
-21.0205
-20.2466
)
;
    }
    bottomWall
    {
        type            calculated;
        value           nonuniform List<scalar> 
20
(
-118.228
-360.758
-621.952
-915.752
-1258.52
-1670.38
-2176.98
-2811.91
-3620.2
-4663.53
-6028.43
-7841.15
-10299.9
-13763.2
-19043.7
-28504.6
-50235.5
-114890
-342066
-1.10052e+06
)
;
    }
    sideWallL
    {
        type            symmetry;
    }
    sideWallR
    {
        type            calculated;
        value           nonuniform List<scalar> 
45
(
-1.68095e+06
-697980
-379246
-243165
-170966
-126602
-96706.7
-75348.1
-59489.5
-47398.9
-38006.6
-30610.4
-24727.8
-20014.4
-16217.3
-13146.4
-10655.9
-8632.44
-6986.69
-5647.57
-4558.08
-3672.19
-2952.55
-2368.71
-1895.82
-1513.5
-1205.06
-956.8
-757.482
-597.888
-470.466
-369.039
-288.563
-224.928
-174.795
-135.459
-104.74
-80.8844
-62.4952
-48.4654
-37.9292
-30.2215
-24.8452
-21.4481
-19.8045
)
;
    }
    frontAndBack
    {
        type            empty;
    }
}


// ************************************************************************* //
