/*--------------------------------*- C++ -*----------------------------------*\
  =========                 |
  \\      /  F ield         | OpenFOAM: The Open Source CFD Toolbox
   \\    /   O peration     | Website:  https://openfoam.org
    \\  /    A nd           | Version:  7
     \\/     M anipulation  |
\*---------------------------------------------------------------------------*/
FoamFile
{
    version     2.0;
    format      ascii;
    class       volScalarField;
    location    "38";
    object      gradTy;
}
// * * * * * * * * * * * * * * * * * * * * * * * * * * * * * * * * * * * * * //

dimensions      [0 -1 0 1 0 0 0];

internalField   nonuniform List<scalar> 
900
(
-315903
-316274
-317037
-318230
-319919
-322195
-325188
-329077
-334104
-340604
-349040
-360071
-374649
-394217
-421104
-459476
-517984
-617938
-820377
-1.30527e+06
-218792
-219032
-219523
-220291
-221379
-222845
-224773
-227281
-230529
-234743
-240240
-247479
-257133
-270216
-288253
-313448
-348305
-392286
-424239
-325426
-170476
-170683
-171106
-171766
-172694
-173936
-175555
-177632
-180279
-183640
-187905
-193315
-200171
-208810
-219493
-232015
-244446
-249316
-223172
-113704
-150209
-150395
-150776
-151366
-152189
-153275
-154668
-156417
-158585
-161236
-164436
-168226
-172573
-177267
-181690
-184325
-181797
-167205
-128437
-52070
-135321
-135466
-135759
-136210
-136830
-137632
-138633
-139847
-141281
-142924
-144732
-146588
-148245
-149217
-148593
-144744
-134938
-115071
-80378.2
-29140.6
-121483
-121581
-121777
-122074
-122471
-122966
-123555
-124218
-124924
-125606
-126149
-126354
-125887
-124204
-120450
-113346
-101138
-81813.4
-53940.9
-18564.9
-108362
-108414
-108516
-108664
-108850
-109059
-109269
-109441
-109515
-109395
-108934
-107909
-105984
-102677
-97319.1
-89045.5
-76874.1
-59964.4
-38166.7
-12813.6
-96029.4
-96040.1
-96057.6
-96073.6
-96073.6
-96035.4
-95925.1
-95692.6
-95264.5
-94534.8
-93352.1
-91505
-88704.6
-84571.4
-78634.4
-70364.3
-59268.3
-45083.7
-28070
-9304.29
-84573.2
-84548.8
-84494.8
-84400.3
-84247.4
-84009
-83646.6
-83105.3
-82309.8
-81156.9
-79508.4
-77184
-73954.8
-69545.4
-63648.4
-55964.7
-46281
-34590
-21231.2
-6987.3
-74049.7
-73997.3
-73886.5
-73705.4
-73434.5
-73045.6
-72499.1
-71741.5
-70702.2
-69288.9
-67384.8
-64845.8
-61501.8
-57164.1
-51644.1
-44788.1
-36530.1
-26960.6
-16390.1
-5370.74
-64481.4
-64408
-64255.4
-64011.3
-63656.6
-63163.7
-62495.6
-61603.4
-60424.9
-58882.5
-56882.5
-54315.4
-51060.5
-46995
-42010.6
-36039.2
-29086.8
-21270.6
-12844.5
-4197.14
-55861.3
-55773.7
-55593
-55307.6
-54899.7
-54344.1
-53607.7
-52648.3
-51413.6
-49841.3
-47858.9
-45386.9
-42342.9
-38650.9
-34253.8
-29131.7
-23321.9
-16937.9
-10178.7
-3319.69
-48159.2
-48063.4
-47866.7
-47558.8
-47123.7
-46539.5
-45778
-44803.9
-43575.1
-42043
-40153.9
-37851.6
-35082.3
-31801.6
-27983.9
-23634.6
-18801.3
-13583.2
-8133.23
-2649
-41328.5
-41229.3
-41026.7
-40711.5
-40270.3
-39684.5
-38930.7
-37980.6
-36801.2
-35355.9
-33605.9
-31513
-29043.4
-26173.6
-22896.6
-19229.4
-15219.9
-10950.8
-6538.96
-2127.61
-35311
-35212.5
-35011.8
-34701.4
-34270
-33702.5
-32980.2
-32080.7
-30979.2
-29648.6
-28061.7
-26193.6
-24024.4
-21543.4
-18754.1
-15677.9
-12358.6
-8863.27
-5281.02
-1717
-30042.6
-29947.7
-29754.8
-29457.9
-29047.9
-28512.6
-27837.5
-27005.6
-25998.3
-24796.4
-23381.4
-21737.6
-19854.5
-17729.4
-15370.7
-12800.7
-10057.1
-7193.84
-4278.93
-1390.36
-25456
-25366.8
-25185.9
-24908.5
-24527.4
-24033.3
-23414.9
-22659.7
-21754.2
-20685.1
-19440.2
-18010.4
-16391.1
-14584.2
-12600.3
-10460.2
-8195.84
-5849.94
-3474.71
-1128.49
-21484.2
-21401.9
-21235.6
-20981.3
-20633.6
-20185.4
-19628.4
-18953.3
-18150.8
-17211.7
-16128.7
-14896.9
-13515.4
-11988.5
-10327.4
-8550.51
-6684.25
-4762.57
-2825.58
-917.306
-18061.7
-17987.2
-17836.7
-17607.4
-17295.1
-16894.6
-16399.8
-15804.2
-15101.3
-14285.3
-13352
-12299.3
-11128.6
-9845.27
-8459.91
-6988.51
-5452.7
-3879.33
-2299.35
-746.218
-15126.5
-15060
-14925.8
-14721.9
-14445.1
-14091.8
-13657.5
-13137.8
-12528.5
-11826
-11028.2
-10135
-9148.74
-8075.26
-6924.08
-5708.78
-4446.97
-3159.84
-1871.38
-607.151
-12620.6
-12561.9
-12443.7
-12264.6
-12022.2
-11713.9
-11336.8
-10887.8
-10364.3
-9764.47
-9087.48
-8334.25
-7507.82
-6613.75
-5660.42
-4659.21
-3624.34
-2572.57
-1522.52
-493.844
-10490.5
-10439.3
-10336.4
-10180.6
-9970.52
-9704.21
-9379.74
-8995.22
-8549.14
-8040.64
-7469.88
-6838.34
-6149.2
-5407.58
-4620.69
-3797.96
-2950.86
-2092.61
-1237.73
-401.384
-8687.48
-8643.3
-8554.53
-8420.45
-8240.01
-8012
-7735.17
-7408.44
-7031.05
-6602.84
-6124.5
-5597.78
-5025.74
-4412.95
-3765.54
-3091.25
-2399.29
-1700.12
-1005.07
-325.87
-7167.72
-7129.91
-7054.04
-6939.6
-6785.93
-6592.28
-6357.92
-6082.27
-5765.12
-5406.73
-5008.05
-4570.91
-4098.13
-3593.7
-3062.74
-2511.59
-1947.64
-1379.14
-814.948
-264.183
-5891.91
-5859.83
-5795.49
-5698.6
-5568.75
-5405.49
-5208.47
-4977.46
-4712.58
-4414.32
-4083.77
-3722.67
-3333.57
-2919.85
-2485.8
-2036.55
-1578.03
-1116.74
-659.64
-213.804
-4825.21
-4798.19
-4744.06
-4662.62
-4553.67
-4416.98
-4252.43
-4060.04
-3840.09
-3593.21
-3320.5
-3023.56
-2704.61
-2366.53
-2012.84
-1647.71
-1275.86
-902.429
-532.865
-172.69
-3936.91
-3914.32
-3869.08
-3801.11
-3710.3
-3596.6
-3460.01
-3300.71
-3119.07
-2915.78
-2691.85
-2448.73
-2188.33
-1913.06
-1625.8
-1329.91
-1029.15
-727.598
-429.501
-139.175
-3200.12
-3181.35
-3143.8
-3087.43
-3012.22
-2918.2
-2805.49
-2674.32
-2525.11
-2358.52
-2175.5
-1977.29
-1765.53
-1542.21
-1309.68
-1070.64
-828.074
-585.199
-345.351
-111.894
-2591.4
-2575.91
-2544.93
-2498.47
-2436.55
-2359.27
-2266.77
-2159.33
-2037.38
-1901.53
-1752.61
-1591.7
-1420.17
-1239.65
-1052.06
-859.55
-664.497
-469.43
-276.965
-89.7281
-2090.49
-2077.78
-2052.37
-2014.3
-1963.61
-1900.43
-1824.93
-1737.39
-1638.21
-1527.94
-1407.3
-1277.21
-1138.81
-993.433
-842.614
-688.083
-531.718
-375.509
-221.505
-71.7541
-1679.9
-1669.53
-1648.82
-1617.79
-1576.53
-1525.16
-1463.85
-1392.88
-1312.6
-1223.5
-1126.2
-1021.48
-910.243
-793.596
-672.772
-549.143
-424.194
-299.489
-176.629
-57.2122
-1344.66
-1336.25
-1319.45
-1294.31
-1260.9
-1219.35
-1169.82
-1112.57
-1047.9
-976.237
-898.104
-814.139
-725.098
-631.861
-535.416
-436.854
-337.343
-238.11
-140.406
-45.4758
-1072
-1065.21
-1051.66
-1031.4
-1004.49
-971.054
-931.247
-885.281
-833.434
-776.06
-713.595
-646.561
-575.574
-501.339
-424.644
-346.35
-267.376
-188.682
-111.243
-36.0279
-851.053
-845.609
-834.742
-818.495
-796.938
-770.173
-738.339
-701.62
-660.253
-614.532
-564.817
-511.533
-455.178
-396.313
-335.562
-273.606
-211.163
-148.983
-87.8257
-28.4421
-672.656
-668.312
-659.644
-646.69
-629.513
-608.202
-582.877
-553.695
-520.854
-484.596
-445.215
-403.056
-358.515
-312.039
-264.121
-215.294
-166.12
-117.183
-69.0709
-22.3671
-529.077
-525.632
-518.758
-508.49
-494.881
-478.009
-457.975
-434.909
-408.975
-380.372
-349.336
-316.145
-281.112
-244.592
-206.972
-168.666
-130.115
-91.7697
-54.0859
-17.5137
-413.829
-411.114
-405.698
-397.611
-386.899
-373.625
-357.874
-339.754
-319.398
-296.966
-272.649
-246.666
-219.266
-190.727
-161.349
-131.458
-101.392
-71.5013
-42.1364
-13.6437
-321.48
-319.357
-315.122
-308.802
-300.432
-290.067
-277.776
-263.645
-247.783
-230.317
-211.398
-191.198
-169.914
-147.761
-124.973
-101.8
-78.5044
-55.3538
-32.6177
-10.5611
-247.487
-245.843
-242.565
-237.673
-231.197
-223.182
-213.682
-202.767
-190.522
-177.049
-162.465
-146.905
-130.521
-113.478
-95.9579
-78.1515
-60.2587
-42.4839
-25.0321
-8.10476
-188.05
-186.794
-184.291
-180.557
-175.616
-169.502
-162.258
-153.94
-144.615
-134.359
-123.265
-111.436
-98.9868
-86.0452
-72.7477
-59.2392
-45.6706
-32.1958
-18.969
-6.14148
-139.98
-139.041
-137.17
-134.38
-130.688
-126.122
-120.714
-114.508
-107.552
-99.9069
-91.6407
-82.8313
-73.565
-63.9366
-54.0478
-44.006
-33.9229
-23.9122
-14.0877
-4.56097
-100.58
-99.9032
-98.5544
-96.5429
-93.8825
-90.5926
-86.698
-82.2294
-77.2235
-71.7236
-65.7794
-59.4473
-52.7895
-45.8741
-38.7742
-31.5669
-24.3318
-17.1503
-10.1035
-3.27101
-67.5405
-67.0849
-66.1769
-64.8228
-63.0323
-60.8186
-58.1986
-55.1933
-51.8277
-48.131
-44.1371
-39.8838
-35.4132
-30.7709
-26.0062
-21.1704
-16.3171
-11.5005
-6.77493
-2.19334
-38.8431
-38.5806
-38.0575
-37.2775
-36.2462
-34.9713
-33.4627
-31.7325
-29.7953
-27.668
-25.3702
-22.9236
-20.3526
-17.6834
-14.9442
-12.1647
-9.37555
-6.6078
-3.89254
-1.26017
-12.6714
-12.5857
-12.4149
-12.1603
-11.8236
-11.4074
-10.915
-10.3502
-9.71801
-9.02383
-8.27407
-7.47587
-6.63715
-5.7665
-4.87312
-3.96666
-3.05709
-2.15457
-1.26921
-0.410891
)
;

boundaryField
{
    topWall
    {
        type            calculated;
        value           uniform 0;
    }
    bottomWall
    {
        type            calculated;
        value           nonuniform List<scalar> 
20
(
-377169
-377641
-378612
-380129
-382275
-385163
-388956
-393871
-400204
-408352
-418858
-432466
-450223
-473665
-505275
-549840
-619294
-750782
-1.07886e+06
-2.11905e+06
)
;
    }
    sideWallL
    {
        type            symmetry;
    }
    sideWallR
    {
        type            calculated;
        value           nonuniform List<scalar> 
45
(
-1.30527e+06
-325426
-113704
-52070
-29140.6
-18564.9
-12813.6
-9304.29
-6987.3
-5370.74
-4197.14
-3319.69
-2649
-2127.61
-1717
-1390.36
-1128.49
-917.306
-746.218
-607.151
-493.844
-401.384
-325.87
-264.183
-213.804
-172.69
-139.175
-111.894
-89.7281
-71.7541
-57.2122
-45.4758
-36.0279
-28.4421
-22.3671
-17.5137
-13.6437
-10.5611
-8.10476
-6.14148
-4.56097
-3.27101
-2.19334
-1.26017
-0.410891
)
;
    }
    frontAndBack
    {
        type            empty;
    }
}


// ************************************************************************* //
