/*--------------------------------*- C++ -*----------------------------------*\
  =========                 |
  \\      /  F ield         | OpenFOAM: The Open Source CFD Toolbox
   \\    /   O peration     | Website:  https://openfoam.org
    \\  /    A nd           | Version:  7
     \\/     M anipulation  |
\*---------------------------------------------------------------------------*/
FoamFile
{
    version     2.0;
    format      ascii;
    class       volScalarField;
    location    "38";
    object      rhoc;
}
// * * * * * * * * * * * * * * * * * * * * * * * * * * * * * * * * * * * * * //

dimensions      [1 -3 0 0 0 0 0];

internalField   nonuniform List<scalar> 
900
(
0.000893828
0.000891272
0.000886042
0.000877899
0.000866469
0.00085123
0.000831493
0.000806377
0.000774796
0.000735441
0.000686802
0.000627234
0.000555112
0.00046913
0.000368826
0.000255678
0.000136851
3.78059e-05
1.1701e-06
1.37567e-12
1.0358e-05
1.02692e-05
1.00892e-05
9.81266e-06
9.43257e-06
8.94022e-06
8.32669e-06
7.5848e-06
6.71231e-06
5.71672e-06
4.62179e-06
3.4752e-06
2.35457e-06
1.36544e-06
6.19977e-07
1.86393e-07
2.61559e-08
7.48848e-10
4.51446e-13
4.75044e-21
1.8685e-07
1.84085e-07
1.7853e-07
1.70143e-07
1.58899e-07
1.44828e-07
1.28083e-07
1.09021e-07
8.83014e-08
6.69654e-08
4.64557e-08
2.84811e-08
1.46396e-08
5.80286e-09
1.54367e-09
2.1604e-10
1.01214e-11
6.51805e-14
9.27914e-18
9.49352e-25
3.39271e-09
3.31867e-09
3.1716e-09
2.95397e-09
2.67064e-09
2.33004e-09
1.94571e-09
1.5374e-09
1.13134e-09
7.58288e-10
4.48547e-10
2.23711e-10
8.79279e-11
2.45766e-11
4.16008e-12
3.293e-13
7.96383e-15
2.91058e-17
5.3647e-21
1.76096e-26
5.98152e-11
5.8078e-11
5.46694e-11
4.97307e-11
4.34952e-11
3.63061e-11
2.86255e-11
2.10181e-11
1.40948e-11
8.4053e-12
4.29529e-12
1.78569e-12
5.60864e-13
1.19601e-13
1.48105e-14
8.4643e-16
1.59859e-17
6.29687e-20
3.08158e-23
2.07616e-27
1.06398e-12
1.02572e-12
9.51557e-13
8.46284e-13
7.1728e-13
5.74408e-13
4.29494e-13
2.95062e-13
1.82261e-13
9.83263e-14
4.45458e-14
1.60697e-14
4.29341e-15
7.69493e-16
8.08648e-17
4.16317e-18
8.35792e-20
5.08119e-22
8.01811e-25
5.79371e-28
2.00422e-14
1.91977e-14
1.75786e-14
1.53235e-14
1.26338e-14
9.76052e-15
6.97673e-15
4.53638e-15
2.62384e-15
1.31101e-15
5.4458e-16
1.78883e-16
4.354e-17
7.22294e-18
7.35206e-19
4.04822e-20
1.05282e-21
1.16364e-23
5.74456e-26
2.55568e-28
4.1991e-16
4.00082e-16
3.6243e-16
3.10821e-16
2.50658e-16
1.88276e-16
1.30041e-16
8.12135e-17
4.48764e-17
2.13412e-17
8.4335e-18
2.65047e-18
6.27548e-19
1.0488e-19
1.14803e-20
7.60912e-22
2.86023e-23
6.02999e-25
8.32894e-27
1.47352e-28
1.02507e-17
9.72852e-18
8.74436e-18
7.41211e-18
5.88582e-18
4.33804e-18
2.93129e-18
1.78742e-18
9.64133e-19
4.48796e-19
1.74926e-19
5.50638e-20
1.34218e-20
2.41739e-21
3.06623e-22
2.62875e-23
1.49811e-24
5.94067e-26
2.00646e-27
1.00428e-28
3.03953e-19
2.87801e-19
2.57512e-19
2.16852e-19
1.70798e-19
1.24741e-19
8.35321e-20
5.05652e-20
2.71914e-20
1.27204e-20
5.05108e-21
1.65558e-21
4.34504e-22
8.85545e-23
1.365e-23
1.56979e-24
1.36777e-25
9.75738e-27
7.02245e-28
7.63715e-29
1.13374e-20
1.07276e-20
9.58706e-21
8.06244e-21
6.34457e-21
4.63617e-21
3.115e-21
1.90117e-21
1.03882e-21
4.99691e-22
2.07638e-22
7.30436e-23
2.13209e-23
5.07518e-24
9.75425e-25
1.522e-25
1.99734e-26
2.41577e-27
3.24047e-28
6.25598e-29
5.46637e-22
5.1769e-22
4.63573e-22
3.91244e-22
3.09702e-22
2.28435e-22
1.55711e-22
9.71176e-23
5.47895e-23
2.76028e-23
1.22509e-23
4.72647e-24
1.56697e-24
4.4332e-25
1.07247e-25
2.25916e-26
4.33887e-27
8.31531e-28
1.83335e-28
5.39752e-29
3.4722e-23
3.29588e-23
2.96566e-23
2.52279e-23
2.0207e-23
1.51585e-23
1.05797e-23
6.81711e-24
4.02056e-24
2.15069e-24
1.03419e-24
4.43651e-25
1.68989e-25
5.72031e-26
1.73854e-26
4.86658e-27
1.31671e-27
3.71709e-28
1.20423e-28
4.83262e-29
2.93782e-24
2.79836e-24
2.53623e-24
2.18243e-24
1.77734e-24
1.36418e-24
9.81902e-25
6.59018e-25
4.09973e-25
2.35015e-25
1.23526e-25
5.93515e-26
2.6082e-26
1.05493e-26
3.98718e-27
1.44768e-27
5.27111e-28
2.03552e-28
8.81959e-29
4.44496e-29
3.32465e-25
3.18085e-25
2.90922e-25
2.5394e-25
2.11042e-25
1.6648e-25
1.24216e-25
8.73297e-26
5.76372e-26
3.55998e-26
2.05407e-26
1.1077e-26
5.60619e-27
2.68819e-27
1.24168e-27
5.6651e-28
2.63843e-28
1.30041e-28
6.99279e-29
4.17052e-29
5.02593e-26
4.83321e-26
4.46697e-26
3.96318e-26
3.36982e-26
2.74042e-26
2.12667e-26
1.57144e-26
1.10364e-26
7.35995e-27
4.66323e-27
2.81512e-27
1.62907e-27
9.12968e-28
5.0299e-28
2.778e-28
1.57257e-28
9.31997e-29
5.8758e-29
3.9716e-29
1.00958e-26
9.76287e-27
9.126e-27
8.24003e-27
7.17925e-27
6.02863e-27
4.87348e-27
3.78912e-27
2.8324e-27
2.03675e-27
1.41172e-27
9.46879e-28
6.18474e-28
3.96974e-28
2.53325e-28
1.62901e-28
1.07026e-28
7.2714e-29
5.1528e-29
3.82484e-29
2.66973e-27
2.59656e-27
2.45564e-27
2.25734e-27
2.0159e-27
1.74807e-27
1.47129e-27
1.20192e-27
9.5348e-28
7.35541e-28
5.53155e-28
4.07118e-28
2.94841e-28
2.11575e-28
1.51666e-28
1.09554e-28
8.04076e-29
6.03885e-29
4.66423e-29
3.7151e-29
9.15016e-28
8.9492e-28
8.55964e-28
8.00525e-28
7.31933e-28
6.54195e-28
5.71645e-28
4.88556e-28
4.08759e-28
3.35318e-28
2.70335e-28
2.14881e-28
1.69095e-28
1.32378e-28
1.03655e-28
8.16266e-29
6.49788e-29
5.25159e-29
4.32312e-29
3.63219e-29
3.96539e-28
3.89796e-28
3.76645e-28
3.57738e-28
3.33999e-28
3.06569e-28
2.76725e-28
2.45783e-28
2.15e-28
1.85483e-28
1.5811e-28
1.33488e-28
1.11946e-28
9.35591e-29
7.81985e-29
6.55954e-29
5.54041e-29
4.72543e-29
4.07897e-29
3.56909e-29
2.1003e-28
2.07339e-28
2.02062e-28
1.94408e-28
1.84675e-28
1.73241e-28
1.60541e-28
1.47042e-28
1.33215e-28
1.19501e-28
1.06292e-28
9.39e-29
8.25517e-29
7.23827e-29
6.34453e-29
5.57227e-29
4.91462e-29
4.36144e-29
3.90089e-29
3.52079e-29
1.3078e-28
1.29538e-28
1.27093e-28
1.23519e-28
1.18928e-28
1.13461e-28
1.07286e-28
1.0059e-28
9.35681e-29
8.64163e-29
7.93186e-29
7.24388e-29
6.59121e-29
5.98413e-29
5.42948e-29
4.9309e-29
4.48919e-29
4.10295e-29
3.76913e-29
3.48367e-29
9.22063e-29
9.15623e-29
9.02897e-29
8.8419e-29
8.59957e-29
8.30792e-29
7.97414e-29
7.60645e-29
7.21383e-29
6.80562e-29
6.39111e-29
5.97914e-29
5.57766e-29
5.19345e-29
4.83193e-29
4.49702e-29
4.19121e-29
3.9157e-29
3.67058e-29
3.45507e-29
7.13019e-29
7.09358e-29
7.02102e-29
6.91389e-29
6.77423e-29
6.60477e-29
6.40886e-29
6.19045e-29
5.95399e-29
5.70426e-29
5.44623e-29
5.18487e-29
4.92492e-29
4.67075e-29
4.42618e-29
4.19435e-29
3.97771e-29
3.778e-29
3.59628e-29
3.43299e-29
5.89906e-29
5.87671e-29
5.83233e-29
5.76658e-29
5.68046e-29
5.57532e-29
5.45284e-29
5.31507e-29
5.16434e-29
5.00328e-29
4.83467e-29
4.66143e-29
4.48646e-29
4.31258e-29
4.1424e-29
3.97825e-29
3.82212e-29
3.67561e-29
3.53994e-29
3.41594e-29
5.12644e-29
5.11204e-29
5.0834e-29
5.04087e-29
4.98496e-29
4.91638e-29
4.83605e-29
4.74508e-29
4.64479e-29
4.53667e-29
4.42238e-29
4.30368e-29
4.18242e-29
4.06042e-29
3.93947e-29
3.82124e-29
3.70726e-29
3.59882e-29
3.49704e-29
3.40276e-29
4.61766e-29
4.60799e-29
4.58874e-29
4.56011e-29
4.52237e-29
4.47592e-29
4.42129e-29
4.35912e-29
4.29019e-29
4.21539e-29
4.13575e-29
4.05238e-29
3.96646e-29
3.87923e-29
3.7919e-29
3.70567e-29
3.62166e-29
3.54091e-29
3.4643e-29
3.39258e-29
4.27022e-29
4.26353e-29
4.25019e-29
4.23033e-29
4.20409e-29
4.17174e-29
4.13356e-29
4.08996e-29
4.04142e-29
3.98849e-29
3.93184e-29
3.87218e-29
3.81031e-29
3.74704e-29
3.68325e-29
3.61977e-29
3.55744e-29
3.49704e-29
3.43926e-29
3.38473e-29
4.0264e-29
4.02166e-29
4.01221e-29
3.99811e-29
3.97948e-29
3.95646e-29
3.92923e-29
3.89807e-29
3.86326e-29
3.82518e-29
3.78426e-29
3.74098e-29
3.69587e-29
3.64953e-29
3.60253e-29
3.5555e-29
3.50903e-29
3.46372e-29
3.42011e-29
3.37869e-29
3.85178e-29
3.84836e-29
3.84155e-29
3.83138e-29
3.81793e-29
3.80129e-29
3.78159e-29
3.75899e-29
3.7337e-29
3.70597e-29
3.67608e-29
3.64437e-29
3.6112e-29
3.577e-29
3.54217e-29
3.50716e-29
3.47242e-29
3.43838e-29
3.40546e-29
3.37403e-29
3.72482e-29
3.72233e-29
3.71736e-29
3.70994e-29
3.70012e-29
3.68795e-29
3.67354e-29
3.65699e-29
3.63843e-29
3.61805e-29
3.59605e-29
3.57265e-29
3.54812e-29
3.52275e-29
3.49683e-29
3.47071e-29
3.44469e-29
3.4191e-29
3.39426e-29
3.37046e-29
3.6315e-29
3.62967e-29
3.62601e-29
3.62055e-29
3.61332e-29
3.60436e-29
3.59373e-29
3.58152e-29
3.56782e-29
3.55275e-29
3.53646e-29
3.51912e-29
3.5009e-29
3.48202e-29
3.46269e-29
3.44316e-29
3.42366e-29
3.40444e-29
3.38572e-29
3.36773e-29
3.56238e-29
3.56102e-29
3.55832e-29
3.55427e-29
3.54892e-29
3.54228e-29
3.53441e-29
3.52535e-29
3.51519e-29
3.50401e-29
3.49191e-29
3.47901e-29
3.46545e-29
3.45137e-29
3.43694e-29
3.42234e-29
3.40772e-29
3.39329e-29
3.3792e-29
3.36564e-29
3.51092e-29
3.50991e-29
3.5079e-29
3.50489e-29
3.50091e-29
3.49598e-29
3.49012e-29
3.48339e-29
3.47584e-29
3.46752e-29
3.45851e-29
3.4489e-29
3.43879e-29
3.42829e-29
3.41752e-29
3.40659e-29
3.39565e-29
3.38483e-29
3.37425e-29
3.36404e-29
3.47248e-29
3.47173e-29
3.47023e-29
3.46799e-29
3.46503e-29
3.46135e-29
3.45699e-29
3.45198e-29
3.44635e-29
3.44016e-29
3.43345e-29
3.42629e-29
3.41875e-29
3.41091e-29
3.40287e-29
3.39471e-29
3.38653e-29
3.37842e-29
3.37049e-29
3.36283e-29
3.44373e-29
3.44317e-29
3.44205e-29
3.44038e-29
3.43817e-29
3.43543e-29
3.43219e-29
3.42845e-29
3.42426e-29
3.41964e-29
3.41464e-29
3.4093e-29
3.40368e-29
3.39784e-29
3.39184e-29
3.38575e-29
3.37964e-29
3.37358e-29
3.36765e-29
3.36192e-29
3.42223e-29
3.42181e-29
3.42098e-29
3.41974e-29
3.41809e-29
3.41604e-29
3.41362e-29
3.41084e-29
3.40771e-29
3.40427e-29
3.40054e-29
3.39657e-29
3.39238e-29
3.38803e-29
3.38356e-29
3.37901e-29
3.37446e-29
3.36994e-29
3.36551e-29
3.36122e-29
3.40619e-29
3.40587e-29
3.40525e-29
3.40432e-29
3.40309e-29
3.40157e-29
3.39976e-29
3.39768e-29
3.39535e-29
3.39279e-29
3.39001e-29
3.38705e-29
3.38393e-29
3.38069e-29
3.37735e-29
3.37397e-29
3.37057e-29
3.36721e-29
3.3639e-29
3.36071e-29
3.39426e-29
3.39402e-29
3.39356e-29
3.39286e-29
3.39194e-29
3.3908e-29
3.38945e-29
3.3879e-29
3.38616e-29
3.38425e-29
3.38217e-29
3.37996e-29
3.37764e-29
3.37522e-29
3.37273e-29
3.37021e-29
3.36768e-29
3.36517e-29
3.3627e-29
3.36032e-29
3.38545e-29
3.38527e-29
3.38492e-29
3.3844e-29
3.38371e-29
3.38285e-29
3.38184e-29
3.38068e-29
3.37937e-29
3.37794e-29
3.37639e-29
3.37473e-29
3.37299e-29
3.37118e-29
3.36932e-29
3.36743e-29
3.36554e-29
3.36366e-29
3.36182e-29
3.36003e-29
3.37902e-29
3.37889e-29
3.37863e-29
3.37823e-29
3.37771e-29
3.37706e-29
3.37629e-29
3.37541e-29
3.37442e-29
3.37334e-29
3.37217e-29
3.37092e-29
3.3696e-29
3.36823e-29
3.36683e-29
3.36541e-29
3.36398e-29
3.36256e-29
3.36117e-29
3.35982e-29
3.37444e-29
3.37434e-29
3.37413e-29
3.37383e-29
3.37343e-29
3.37293e-29
3.37233e-29
3.37166e-29
3.3709e-29
3.37006e-29
3.36916e-29
3.3682e-29
3.36718e-29
3.36613e-29
3.36506e-29
3.36396e-29
3.36286e-29
3.36178e-29
3.36071e-29
3.35967e-29
3.37131e-29
3.37123e-29
3.37107e-29
3.37082e-29
3.3705e-29
3.3701e-29
3.36963e-29
3.36909e-29
3.36849e-29
3.36782e-29
3.3671e-29
3.36634e-29
3.36553e-29
3.3647e-29
3.36384e-29
3.36297e-29
3.3621e-29
3.36124e-29
3.36039e-29
3.35957e-29
3.36936e-29
3.36929e-29
3.36916e-29
3.36895e-29
3.36868e-29
3.36835e-29
3.36795e-29
3.3675e-29
3.36699e-29
3.36643e-29
3.36582e-29
3.36518e-29
3.36451e-29
3.36381e-29
3.36309e-29
3.36236e-29
3.36163e-29
3.36091e-29
3.3602e-29
3.35951e-29
3.36843e-29
3.36837e-29
3.36824e-29
3.36806e-29
3.36781e-29
3.3675e-29
3.36714e-29
3.36673e-29
3.36627e-29
3.36576e-29
3.36521e-29
3.36463e-29
3.36402e-29
3.36338e-29
3.36273e-29
3.36207e-29
3.3614e-29
3.36075e-29
3.3601e-29
3.35948e-29
)
;

boundaryField
{
    topWall
    {
        type            zeroGradient;
    }
    bottomWall
    {
        type            zeroGradient;
    }
    sideWallL
    {
        type            symmetry;
    }
    sideWallR
    {
        type            zeroGradient;
    }
    frontAndBack
    {
        type            empty;
    }
}


// ************************************************************************* //
