/*--------------------------------*- C++ -*----------------------------------*\
  =========                 |
  \\      /  F ield         | OpenFOAM: The Open Source CFD Toolbox
   \\    /   O peration     | Website:  https://openfoam.org
    \\  /    A nd           | Version:  7
     \\/     M anipulation  |
\*---------------------------------------------------------------------------*/
FoamFile
{
    version     2.0;
    format      ascii;
    class       volScalarField;
    location    "38";
    object      rhog;
}
// * * * * * * * * * * * * * * * * * * * * * * * * * * * * * * * * * * * * * //

dimensions      [1 -3 0 0 0 0 0];

internalField   nonuniform List<scalar> 
900
(
2.8758
2.8691
2.8554
2.83403
2.80398
2.76381
2.71159
2.64484
2.56038
2.45428
2.32178
2.15727
1.95447
1.70676
1.40791
1.05372
0.650291
0.254153
0.0271301
9.40501e-06
0.105494
0.104898
0.103683
0.101806
0.0992005
0.0957796
0.0914382
0.0860587
0.0795232
0.0717344
0.0626514
0.0523454
0.0410797
0.0294083
0.0182652
0.00895743
0.0028445
0.000362716
4.8743e-06
9.49158e-11
0.00912223
0.00904205
0.00887948
0.00863025
0.00828833
0.00784663
0.00729802
0.0066372
0.00586351
0.00498507
0.00402423
0.00302385
0.0020517
0.00119778
0.000555108
0.000177217
2.98898e-05
1.5715e-06
8.57325e-09
5.72528e-13
0.000893878
0.000882442
0.00085941
0.000824501
0.000777414
0.000717973
0.000646373
0.000563496
0.000471328
0.000373394
0.000275075
0.000183496
0.000106552
5.0717e-05
1.80051e-05
4.09203e-06
4.62049e-07
1.69607e-08
1.03057e-10
5.09025e-14
8.68336e-05
8.53506e-05
8.23862e-05
7.79515e-05
7.2082e-05
6.48615e-05
5.64527e-05
4.71324e-05
3.73214e-05
2.75939e-05
1.86406e-05
1.11595e-05
5.66819e-06
2.29315e-06
6.73458e-07
1.2515e-07
1.20296e-08
4.51067e-10
4.74103e-12
1.36937e-14
8.40658e-06
8.22786e-06
7.87337e-06
7.34997e-06
6.67029e-06
5.85532e-06
4.93718e-06
3.9612e-06
2.98587e-06
2.07862e-06
1.30583e-06
7.17374e-07
3.30121e-07
1.19963e-07
3.17554e-08
5.49292e-09
5.39892e-10
2.57154e-11
5.30377e-13
6.19622e-15
8.32548e-07
8.11693e-07
7.70627e-07
7.10737e-07
6.34336e-07
5.44867e-07
4.47061e-07
3.46897e-07
2.51219e-07
1.66871e-07
9.93791e-08
5.15051e-08
2.2344e-08
7.71614e-09
1.99036e-09
3.55008e-10
4.02169e-11
2.69452e-12
1.07821e-13
3.70666e-15
8.68311e-08
8.4381e-08
7.95874e-08
7.26722e-08
6.39858e-08
5.4018e-08
4.33938e-08
3.2841e-08
2.31154e-08
1.48838e-08
8.58533e-09
4.32118e-09
1.83687e-09
6.339e-10
1.69629e-10
3.35113e-11
4.68095e-12
4.55499e-13
3.32313e-14
2.61564e-15
9.81101e-09
9.51094e-09
8.92695e-09
8.09191e-09
7.05593e-09
5.88593e-09
4.66284e-09
3.47502e-09
2.40746e-09
1.52764e-09
8.71883e-10
4.3792e-10
1.88678e-10
6.77556e-11
1.96794e-11
4.50046e-12
7.99008e-13
1.12243e-13
1.38292e-14
2.04873e-15
1.23234e-09
1.19285e-09
1.11629e-09
1.00752e-09
8.73784e-10
7.24408e-10
5.7025e-10
4.22624e-10
2.91809e-10
1.85358e-10
1.06717e-10
5.47471e-11
2.45624e-11
9.45413e-12
3.06857e-12
8.3104e-13
1.88716e-13
3.733e-14
7.18607e-15
1.71929e-15
1.7591e-10
1.7018e-10
1.59101e-10
1.43424e-10
1.24249e-10
1.02963e-10
8.11348e-11
6.0352e-11
4.20066e-11
2.70793e-11
1.59822e-11
8.52895e-12
4.06377e-12
1.70929e-12
6.29944e-13
2.03566e-13
5.86528e-14
1.57974e-14
4.40897e-15
1.5125e-15
2.90357e-11
2.81011e-11
2.62958e-11
2.37453e-11
2.06312e-11
1.71794e-11
1.36412e-11
1.02669e-11
7.27298e-12
4.8112e-12
2.94714e-12
1.6576e-12
8.49574e-13
3.94729e-13
1.66181e-13
6.3917e-14
2.29901e-14
8.11893e-15
3.06339e-15
1.37536e-15
5.61047e-12
5.43659e-12
5.10066e-12
4.62581e-12
4.04525e-12
3.40003e-12
2.73557e-12
2.09689e-12
1.52318e-12
1.04254e-12
6.68553e-13
3.99634e-13
2.21882e-13
1.1435e-13
5.4945e-14
2.49303e-14
1.09592e-14
4.87601e-15
2.33524e-15
1.28068e-15
1.27837e-12
1.24116e-12
1.16918e-12
1.0672e-12
9.4202e-13
8.02076e-13
6.56692e-13
5.15183e-13
3.85802e-13
2.74739e-13
1.8542e-13
1.18314e-13
7.13395e-14
4.07542e-14
2.22231e-14
1.17375e-14
6.15173e-15
3.31197e-15
1.90687e-15
1.21333e-15
3.44444e-13
3.35257e-13
3.17445e-13
2.92112e-13
2.60837e-13
2.25578e-13
1.88519e-13
1.51872e-13
1.17651e-13
8.74488e-14
6.22712e-14
4.24679e-14
2.7784e-14
1.75184e-14
1.07394e-14
6.49198e-15
3.94797e-15
2.47493e-15
1.6383e-15
1.16433e-15
1.09656e-13
1.07042e-13
1.0196e-13
9.46976e-14
8.56679e-14
7.53856e-14
6.44321e-14
5.34072e-14
4.2874e-14
3.33034e-14
2.50284e-14
1.82188e-14
1.28837e-14
8.89941e-15
6.05603e-15
4.10846e-15
2.81981e-15
1.98896e-15
1.46149e-15
1.12806e-15
4.11011e-14
4.02486e-14
3.85865e-14
3.61984e-14
3.32056e-14
2.97608e-14
2.60384e-14
2.22224e-14
1.84912e-14
1.5002e-14
1.18768e-14
9.19306e-15
6.98119e-15
5.22854e-15
3.88986e-15
2.9004e-15
2.18901e-15
1.68826e-15
1.34064e-15
1.10087e-15
1.80324e-14
1.77166e-14
1.70987e-14
1.62061e-14
1.50784e-14
1.37661e-14
1.23278e-14
1.08266e-14
9.32557e-15
7.88318e-15
6.54829e-15
5.35674e-15
4.32935e-15
3.47208e-15
2.77817e-15
2.23152e-15
1.81072e-15
1.49272e-15
1.2556e-15
1.08027e-15
9.18147e-15
9.04991e-15
8.79175e-15
8.41676e-15
7.93931e-15
7.37783e-15
6.75407e-15
6.09195e-15
5.41613e-15
4.7504e-15
4.11596e-15
3.52998e-15
3.00458e-15
2.54647e-15
2.15717e-15
1.83395e-15
1.57095e-15
1.36052e-15
1.19439e-15
1.06455e-15
5.35868e-15
5.29784e-15
5.1781e-15
5.00329e-15
4.77909e-15
4.51287e-15
4.21345e-15
3.89073e-15
3.55521e-15
3.21739e-15
2.88714e-15
2.57305e-15
2.28196e-15
2.01864e-15
1.78575e-15
1.58393e-15
1.41221e-15
1.26839e-15
1.14956e-15
1.05248e-15
3.52606e-15
3.49522e-15
3.43437e-15
3.34513e-15
3.22994e-15
3.09197e-15
2.93509e-15
2.76374e-15
2.58272e-15
2.39702e-15
2.21151e-15
2.03068e-15
1.85843e-15
1.69785e-15
1.55113e-15
1.41952e-15
1.30346e-15
1.20265e-15
1.11628e-15
1.04319e-15
2.56493e-15
2.54803e-15
2.51459e-15
2.46536e-15
2.40145e-15
2.32433e-15
2.23583e-15
2.13805e-15
2.03336e-15
1.92426e-15
1.8133e-15
1.70293e-15
1.59541e-15
1.4927e-15
1.39637e-15
1.30754e-15
1.22694e-15
1.15488e-15
1.09133e-15
1.03601e-15
2.02121e-15
2.0113e-15
1.99168e-15
1.96269e-15
1.92488e-15
1.87897e-15
1.82587e-15
1.76665e-15
1.70254e-15
1.63486e-15
1.56501e-15
1.49438e-15
1.42433e-15
1.35609e-15
1.29074e-15
1.22914e-15
1.17197e-15
1.11967e-15
1.07247e-15
1.03045e-15
1.69371e-15
1.68758e-15
1.67542e-15
1.65741e-15
1.63382e-15
1.60504e-15
1.57153e-15
1.53388e-15
1.49275e-15
1.44888e-15
1.40306e-15
1.35613e-15
1.3089e-15
1.26218e-15
1.21669e-15
1.17306e-15
1.13184e-15
1.09343e-15
1.05814e-15
1.02614e-15
1.48611e-15
1.48215e-15
1.47427e-15
1.46258e-15
1.44722e-15
1.4284e-15
1.40638e-15
1.38148e-15
1.35409e-15
1.32464e-15
1.29359e-15
1.26145e-15
1.22875e-15
1.19599e-15
1.16368e-15
1.13228e-15
1.10218e-15
1.07372e-15
1.0472e-15
1.0228e-15
1.349e-15
1.34634e-15
1.34105e-15
1.33319e-15
1.32284e-15
1.31012e-15
1.29517e-15
1.27819e-15
1.2594e-15
1.23907e-15
1.21748e-15
1.19495e-15
1.17182e-15
1.14843e-15
1.12513e-15
1.10223e-15
1.08004e-15
1.05883e-15
1.03883e-15
1.02021e-15
1.25544e-15
1.25361e-15
1.24996e-15
1.24452e-15
1.23735e-15
1.22852e-15
1.21811e-15
1.20624e-15
1.19305e-15
1.17871e-15
1.16339e-15
1.14731e-15
1.13068e-15
1.11375e-15
1.09674e-15
1.07989e-15
1.06342e-15
1.04753e-15
1.03241e-15
1.01821e-15
1.18994e-15
1.18865e-15
1.18607e-15
1.18223e-15
1.17716e-15
1.1709e-15
1.1635e-15
1.15505e-15
1.14562e-15
1.13533e-15
1.1243e-15
1.11265e-15
1.10056e-15
1.08816e-15
1.07564e-15
1.06315e-15
1.05086e-15
1.03892e-15
1.02748e-15
1.01666e-15
1.14316e-15
1.14224e-15
1.14039e-15
1.13763e-15
1.13398e-15
1.12947e-15
1.12414e-15
1.11802e-15
1.1112e-15
1.10372e-15
1.09567e-15
1.08716e-15
1.07827e-15
1.06913e-15
1.05985e-15
1.05055e-15
1.04135e-15
1.03236e-15
1.0237e-15
1.01547e-15
1.10924e-15
1.10857e-15
1.10722e-15
1.10521e-15
1.10256e-15
1.09927e-15
1.09538e-15
1.09091e-15
1.08591e-15
1.08043e-15
1.07452e-15
1.06824e-15
1.06167e-15
1.05489e-15
1.04798e-15
1.04103e-15
1.03413e-15
1.02736e-15
1.0208e-15
1.01454e-15
1.08436e-15
1.08386e-15
1.08287e-15
1.0814e-15
1.07945e-15
1.07703e-15
1.07417e-15
1.07088e-15
1.06719e-15
1.06314e-15
1.05877e-15
1.05411e-15
1.04923e-15
1.04418e-15
1.03903e-15
1.03382e-15
1.02864e-15
1.02354e-15
1.01858e-15
1.01384e-15
1.06594e-15
1.06558e-15
1.06485e-15
1.06376e-15
1.06232e-15
1.06053e-15
1.05841e-15
1.05597e-15
1.05324e-15
1.05023e-15
1.04698e-15
1.04352e-15
1.03989e-15
1.03612e-15
1.03226e-15
1.02836e-15
1.02447e-15
1.02063e-15
1.01689e-15
1.01329e-15
1.05224e-15
1.05197e-15
1.05143e-15
1.05062e-15
1.04955e-15
1.04822e-15
1.04664e-15
1.04483e-15
1.0428e-15
1.04056e-15
1.03814e-15
1.03556e-15
1.03285e-15
1.03003e-15
1.02714e-15
1.02422e-15
1.0213e-15
1.01841e-15
1.01559e-15
1.01288e-15
1.042e-15
1.0418e-15
1.0414e-15
1.04079e-15
1.03999e-15
1.039e-15
1.03783e-15
1.03648e-15
1.03496e-15
1.0333e-15
1.03149e-15
1.02956e-15
1.02754e-15
1.02543e-15
1.02327e-15
1.02108e-15
1.01889e-15
1.01672e-15
1.0146e-15
1.01256e-15
1.03433e-15
1.03418e-15
1.03388e-15
1.03343e-15
1.03283e-15
1.0321e-15
1.03122e-15
1.03021e-15
1.02908e-15
1.02784e-15
1.02649e-15
1.02505e-15
1.02354e-15
1.02196e-15
1.02035e-15
1.01871e-15
1.01707e-15
1.01544e-15
1.01385e-15
1.01232e-15
1.02858e-15
1.02847e-15
1.02825e-15
1.02791e-15
1.02746e-15
1.02691e-15
1.02626e-15
1.02551e-15
1.02466e-15
1.02373e-15
1.02273e-15
1.02166e-15
1.02053e-15
1.01935e-15
1.01815e-15
1.01692e-15
1.01569e-15
1.01448e-15
1.01329e-15
1.01213e-15
1.02428e-15
1.02419e-15
1.02402e-15
1.02377e-15
1.02344e-15
1.02303e-15
1.02254e-15
1.02198e-15
1.02135e-15
1.02066e-15
1.01991e-15
1.01911e-15
1.01826e-15
1.01739e-15
1.01649e-15
1.01557e-15
1.01466e-15
1.01375e-15
1.01286e-15
1.01199e-15
1.02106e-15
1.02099e-15
1.02087e-15
1.02068e-15
1.02043e-15
1.02012e-15
1.01976e-15
1.01934e-15
1.01887e-15
1.01835e-15
1.01779e-15
1.0172e-15
1.01657e-15
1.01591e-15
1.01524e-15
1.01456e-15
1.01388e-15
1.0132e-15
1.01253e-15
1.01189e-15
1.01866e-15
1.01861e-15
1.01852e-15
1.01838e-15
1.01819e-15
1.01796e-15
1.01769e-15
1.01738e-15
1.01703e-15
1.01664e-15
1.01622e-15
1.01577e-15
1.01531e-15
1.01482e-15
1.01432e-15
1.01381e-15
1.0133e-15
1.01279e-15
1.01229e-15
1.01181e-15
1.01689e-15
1.01685e-15
1.01678e-15
1.01668e-15
1.01654e-15
1.01636e-15
1.01616e-15
1.01592e-15
1.01566e-15
1.01537e-15
1.01506e-15
1.01472e-15
1.01437e-15
1.01401e-15
1.01363e-15
1.01325e-15
1.01287e-15
1.01249e-15
1.01212e-15
1.01176e-15
1.0156e-15
1.01557e-15
1.01552e-15
1.01543e-15
1.01533e-15
1.0152e-15
1.01504e-15
1.01486e-15
1.01466e-15
1.01445e-15
1.01421e-15
1.01396e-15
1.01369e-15
1.01341e-15
1.01313e-15
1.01284e-15
1.01255e-15
1.01227e-15
1.01199e-15
1.01171e-15
1.01467e-15
1.01465e-15
1.01461e-15
1.01455e-15
1.01447e-15
1.01437e-15
1.01425e-15
1.01411e-15
1.01395e-15
1.01379e-15
1.0136e-15
1.01341e-15
1.0132e-15
1.01299e-15
1.01277e-15
1.01255e-15
1.01233e-15
1.01211e-15
1.01189e-15
1.01168e-15
1.01404e-15
1.01402e-15
1.01399e-15
1.01394e-15
1.01388e-15
1.0138e-15
1.0137e-15
1.01359e-15
1.01347e-15
1.01333e-15
1.01319e-15
1.01303e-15
1.01287e-15
1.0127e-15
1.01253e-15
1.01235e-15
1.01218e-15
1.012e-15
1.01183e-15
1.01166e-15
1.01365e-15
1.01363e-15
1.01361e-15
1.01357e-15
1.01351e-15
1.01344e-15
1.01336e-15
1.01327e-15
1.01317e-15
1.01305e-15
1.01293e-15
1.0128e-15
1.01266e-15
1.01252e-15
1.01238e-15
1.01223e-15
1.01208e-15
1.01193e-15
1.01179e-15
1.01165e-15
1.01346e-15
1.01345e-15
1.01342e-15
1.01338e-15
1.01333e-15
1.01327e-15
1.0132e-15
1.01312e-15
1.01302e-15
1.01292e-15
1.01281e-15
1.01269e-15
1.01256e-15
1.01244e-15
1.0123e-15
1.01217e-15
1.01203e-15
1.0119e-15
1.01177e-15
1.01164e-15
)
;

boundaryField
{
    topWall
    {
        type            calculated;
        value           uniform 0;
    }
    bottomWall
    {
        type            zeroGradient;
    }
    sideWallL
    {
        type            symmetry;
    }
    sideWallR
    {
        type            calculated;
        value           uniform 0;
    }
    frontAndBack
    {
        type            empty;
    }
}


// ************************************************************************* //
