/*--------------------------------*- C++ -*----------------------------------*\
  =========                 |
  \\      /  F ield         | OpenFOAM: The Open Source CFD Toolbox
   \\    /   O peration     | Website:  https://openfoam.org
    \\  /    A nd           | Version:  7
     \\/     M anipulation  |
\*---------------------------------------------------------------------------*/
FoamFile
{
    version     2.0;
    format      ascii;
    class       volScalarField;
    location    "38";
    object      rhois;
}
// * * * * * * * * * * * * * * * * * * * * * * * * * * * * * * * * * * * * * //

dimensions      [1 -3 0 0 0 0 0];

internalField   nonuniform List<scalar> 
900
(
1.62029
1.61837
1.61443
1.60826
1.59954
1.58781
1.57241
1.55247
1.52685
1.49399
1.45185
1.39767
1.32769
1.23666
1.11679
0.955524
0.731877
0.423318
0.0974969
0.000306753
0.246412
0.245536
0.243745
0.240956
0.237043
0.231833
0.225094
0.216538
0.205813
0.192513
0.176194
0.156434
0.13295
0.105835
0.0759946
0.045844
0.020028
0.0044566
0.000191727
7.53838e-08
0.0450457
0.0447671
0.0441995
0.0433227
0.0421059
0.0405094
0.0384852
0.0359812
0.0329473
0.0293476
0.0251805
0.02051
0.0155095
0.0105091
0.00601483
0.00262144
0.000717175
8.40668e-05
1.92017e-06
1.97387e-09
0.0082256
0.00815006
0.00799703
0.00776272
0.00744194
0.0070287
0.00651734
0.00590438
0.00519122
0.004388
0.00351851
0.00262498
0.00177047
0.00103332
0.000487244
0.00016615
3.4117e-05
3.11324e-06
7.86775e-08
3.61657e-10
0.00147821
0.00146003
0.00142341
0.00136791
0.00129303
0.00119844
0.00108439
0.000952129
0.000804573
0.000646937
0.000487236
0.000336177
0.000205882
0.000106907
4.40143e-05
1.30141e-05
2.39264e-06
2.24305e-07
8.61721e-09
1.45925e-10
0.000265642
0.000261574
0.000253428
0.000241205
0.000224951
0.000204822
0.000181158
0.00015458
0.000126086
9.70962e-05
6.94193e-05
4.50415e-05
2.571e-05
1.2373e-05
4.73768e-06
1.33578e-06
2.51386e-07
2.83624e-08
1.81048e-09
8.47531e-11
4.87345e-05
4.78554e-05
4.61052e-05
4.35038e-05
4.00919e-05
3.59429e-05
3.11775e-05
2.59774e-05
2.05934e-05
1.53386e-05
1.05593e-05
6.57581e-06
3.6024e-06
1.67473e-06
6.31508e-07
1.82983e-07
3.84609e-08
5.62108e-09
5.89499e-10
5.96679e-11
9.32521e-06
9.13594e-06
8.761e-06
8.20844e-06
7.49244e-06
6.63547e-06
5.67051e-06
4.64246e-06
3.60755e-06
2.62941e-06
1.77074e-06
1.08123e-06
5.84852e-07
2.72522e-07
1.05945e-07
3.32391e-08
8.19517e-09
1.58705e-09
2.60197e-10
4.70111e-11
1.89997e-06
1.85825e-06
1.77594e-06
1.65549e-06
1.50095e-06
1.31833e-06
1.11587e-06
9.04031e-07
6.95066e-07
5.01807e-07
3.35812e-07
2.05108e-07
1.12299e-07
5.40278e-08
2.23827e-08
7.85269e-09
2.32162e-09
5.92504e-10
1.42702e-10
3.97517e-11
4.2003e-07
4.1039e-07
3.91435e-07
3.63845e-07
3.28706e-07
2.87561e-07
2.42432e-07
1.95771e-07
1.50302e-07
1.0873e-07
7.33407e-08
4.55804e-08
2.57666e-08
1.30802e-08
5.89961e-09
2.35356e-09
8.38027e-10
2.76145e-10
9.16167e-11
3.52199e-11
1.02389e-07
1.00009e-07
9.53407e-08
8.85692e-08
7.99852e-08
6.99897e-08
5.90918e-08
4.78891e-08
3.7023e-08
2.71094e-08
1.86513e-08
1.19549e-08
7.07969e-09
3.8469e-09
1.9115e-09
8.71895e-10
3.71332e-10
1.53522e-10
6.59938e-11
3.22199e-11
2.78755e-08
2.72385e-08
2.59902e-08
2.41827e-08
2.18962e-08
1.92394e-08
1.63473e-08
1.33753e-08
1.04869e-08
7.8367e-09
5.55017e-09
3.70498e-09
2.32063e-09
1.36067e-09
7.48178e-10
3.89237e-10
1.9545e-10
9.8099e-11
5.17169e-11
3.01486e-11
8.55538e-09
8.36846e-09
8.00221e-09
7.472e-09
6.80116e-09
6.02099e-09
5.16989e-09
4.29155e-09
3.43167e-09
2.63345e-09
1.93246e-09
1.35201e-09
9.00443e-10
5.71422e-10
3.47259e-10
2.04329e-10
1.18639e-10
6.98686e-11
4.31123e-11
2.86737e-11
2.97778e-09
2.91727e-09
2.79864e-09
2.6267e-09
2.40871e-09
2.15435e-09
1.87544e-09
1.58538e-09
1.29821e-09
1.02738e-09
7.84278e-10
5.76947e-10
4.09241e-10
2.80734e-10
1.87442e-10
1.23137e-10
8.08451e-11
5.4086e-11
3.76097e-11
2.75991e-11
1.1789e-09
1.15724e-09
1.11473e-09
1.05298e-09
9.74416e-10
8.82276e-10
7.80505e-10
6.73593e-10
5.66292e-10
4.6323e-10
3.6848e-10
2.8514e-10
2.15047e-10
1.58676e-10
1.15279e-10
8.32158e-11
6.038e-11
4.45988e-11
3.39282e-11
2.68023e-11
5.31011e-10
5.22451e-10
5.0562e-10
4.811e-10
4.49767e-10
4.12788e-10
3.71594e-10
3.27823e-10
2.83233e-10
2.39577e-10
1.98455e-10
1.61176e-10
1.2864e-10
1.01283e-10
7.90912e-11
6.16799e-11
4.84182e-11
3.8564e-11
3.13782e-11
2.62038e-11
2.71404e-10
2.67683e-10
2.60354e-10
2.4964e-10
2.35883e-10
2.19536e-10
2.01159e-10
1.814e-10
1.60967e-10
1.4058e-10
1.20925e-10
1.02597e-10
8.60522e-11
7.15806e-11
5.92965e-11
4.91553e-11
4.09892e-11
3.4552e-11
2.95643e-11
2.57495e-11
1.56429e-10
1.54663e-10
1.51176e-10
1.46061e-10
1.3946e-10
1.31563e-10
1.22604e-10
1.12861e-10
1.02638e-10
9.22575e-11
8.20334e-11
7.22542e-11
6.31605e-11
5.49304e-11
4.76706e-11
4.1418e-11
3.61485e-11
3.17914e-11
2.82469e-11
2.54023e-11
1.00637e-10
9.97281e-11
9.79307e-11
9.52857e-11
9.18554e-11
8.77242e-11
8.2998e-11
7.78025e-11
7.22796e-11
6.65813e-11
6.08618e-11
5.52687e-11
4.99336e-11
4.49639e-11
4.04379e-11
3.6402e-11
3.28725e-11
2.98399e-11
2.72748e-11
2.51352e-11
7.12697e-11
7.07678e-11
6.97733e-11
6.83053e-11
6.6393e-11
6.40762e-11
6.14054e-11
5.84413e-11
5.52537e-11
5.19189e-11
4.85168e-11
4.51269e-11
4.18235e-11
3.86721e-11
3.57258e-11
3.30234e-11
3.05886e-11
2.84312e-11
2.65486e-11
2.49291e-11
5.46802e-11
5.43854e-11
5.38004e-11
5.29345e-11
5.18021e-11
5.0423e-11
4.88225e-11
4.70315e-11
4.50864e-11
4.30274e-11
4.08981e-11
3.87429e-11
3.66055e-11
3.45263e-11
3.25407e-11
3.06777e-11
2.89588e-11
2.73976e-11
2.6001e-11
2.47695e-11
4.47286e-11
4.45462e-11
4.41837e-11
4.36459e-11
4.29402e-11
4.2077e-11
4.10695e-11
3.99344e-11
3.86914e-11
3.73627e-11
3.59732e-11
3.45488e-11
3.31158e-11
3.16998e-11
3.03243e-11
2.90101e-11
2.77743e-11
2.66297e-11
2.55852e-11
2.46456e-11
3.84519e-11
3.8334e-11
3.80995e-11
3.77508e-11
3.7292e-11
3.67288e-11
3.60684e-11
3.53201e-11
3.44952e-11
3.36065e-11
3.26686e-11
3.16973e-11
3.07089e-11
2.97199e-11
2.87462e-11
2.78024e-11
2.69012e-11
2.60536e-11
2.52677e-11
2.45495e-11
3.43266e-11
3.42477e-11
3.40904e-11
3.38562e-11
3.35475e-11
3.31673e-11
3.27199e-11
3.22107e-11
3.16463e-11
3.10345e-11
3.03842e-11
2.97052e-11
2.9008e-11
2.83035e-11
2.76023e-11
2.69149e-11
2.62508e-11
2.56183e-11
2.50244e-11
2.44748e-11
3.15233e-11
3.14688e-11
3.13603e-11
3.11986e-11
3.09849e-11
3.07212e-11
3.041e-11
3.00546e-11
2.9659e-11
2.9228e-11
2.87674e-11
2.82833e-11
2.77828e-11
2.72731e-11
2.67616e-11
2.62556e-11
2.57622e-11
2.52876e-11
2.48375e-11
2.44168e-11
2.95667e-11
2.95283e-11
2.94517e-11
2.93374e-11
2.91862e-11
2.89993e-11
2.87783e-11
2.85252e-11
2.82425e-11
2.79335e-11
2.76017e-11
2.72514e-11
2.68872e-11
2.65141e-11
2.61372e-11
2.57618e-11
2.53929e-11
2.50354e-11
2.46938e-11
2.43718e-11
2.8172e-11
2.81444e-11
2.80893e-11
2.80071e-11
2.78983e-11
2.77636e-11
2.76041e-11
2.7421e-11
2.7216e-11
2.69913e-11
2.67493e-11
2.64928e-11
2.6225e-11
2.59494e-11
2.56697e-11
2.53895e-11
2.51126e-11
2.48427e-11
2.45831e-11
2.43369e-11
2.71613e-11
2.71412e-11
2.7101e-11
2.70411e-11
2.69617e-11
2.68634e-11
2.67468e-11
2.66127e-11
2.64625e-11
2.62974e-11
2.61191e-11
2.59297e-11
2.57313e-11
2.55264e-11
2.53176e-11
2.51077e-11
2.48993e-11
2.46952e-11
2.44979e-11
2.43098e-11
2.64195e-11
2.64047e-11
2.63751e-11
2.6331e-11
2.62725e-11
2.62e-11
2.6114e-11
2.6015e-11
2.59039e-11
2.57816e-11
2.56494e-11
2.55086e-11
2.53609e-11
2.52078e-11
2.50515e-11
2.48937e-11
2.47366e-11
2.45822e-11
2.44324e-11
2.4289e-11
2.58699e-11
2.58589e-11
2.5837e-11
2.58042e-11
2.57608e-11
2.5707e-11
2.56431e-11
2.55695e-11
2.54868e-11
2.53958e-11
2.52973e-11
2.51922e-11
2.50817e-11
2.49671e-11
2.48497e-11
2.4731e-11
2.46125e-11
2.44957e-11
2.4382e-11
2.42729e-11
2.54598e-11
2.54516e-11
2.54352e-11
2.54108e-11
2.53784e-11
2.53383e-11
2.52906e-11
2.52356e-11
2.51739e-11
2.51059e-11
2.50322e-11
2.49535e-11
2.48707e-11
2.47847e-11
2.46965e-11
2.46071e-11
2.45178e-11
2.44295e-11
2.43433e-11
2.42605e-11
2.51523e-11
2.51462e-11
2.51339e-11
2.51157e-11
2.50914e-11
2.50614e-11
2.50257e-11
2.49845e-11
2.49383e-11
2.48874e-11
2.48321e-11
2.47732e-11
2.4711e-11
2.46465e-11
2.45801e-11
2.45129e-11
2.44455e-11
2.43789e-11
2.43137e-11
2.4251e-11
2.4921e-11
2.49164e-11
2.49073e-11
2.48935e-11
2.48754e-11
2.48528e-11
2.48261e-11
2.47952e-11
2.47606e-11
2.47224e-11
2.4681e-11
2.46367e-11
2.45901e-11
2.45416e-11
2.44918e-11
2.44412e-11
2.43905e-11
2.43403e-11
2.42911e-11
2.42437e-11
2.47468e-11
2.47433e-11
2.47364e-11
2.47261e-11
2.47125e-11
2.46956e-11
2.46755e-11
2.46524e-11
2.46264e-11
2.45978e-11
2.45667e-11
2.45335e-11
2.44986e-11
2.44622e-11
2.44248e-11
2.43868e-11
2.43487e-11
2.43109e-11
2.42739e-11
2.42381e-11
2.46154e-11
2.46128e-11
2.46077e-11
2.45999e-11
2.45897e-11
2.4577e-11
2.45619e-11
2.45446e-11
2.45251e-11
2.45037e-11
2.44804e-11
2.44555e-11
2.44293e-11
2.4402e-11
2.4374e-11
2.43455e-11
2.43169e-11
2.42886e-11
2.42608e-11
2.42339e-11
2.45165e-11
2.45145e-11
2.45106e-11
2.45048e-11
2.44972e-11
2.44876e-11
2.44763e-11
2.44634e-11
2.44488e-11
2.44327e-11
2.44153e-11
2.43966e-11
2.4377e-11
2.43566e-11
2.43356e-11
2.43143e-11
2.42929e-11
2.42717e-11
2.42508e-11
2.42307e-11
2.4442e-11
2.44406e-11
2.44377e-11
2.44333e-11
2.44276e-11
2.44204e-11
2.4412e-11
2.44022e-11
2.43913e-11
2.43793e-11
2.43663e-11
2.43523e-11
2.43377e-11
2.43224e-11
2.43067e-11
2.42908e-11
2.42748e-11
2.42589e-11
2.42433e-11
2.42283e-11
2.43862e-11
2.43851e-11
2.43829e-11
2.43797e-11
2.43754e-11
2.437e-11
2.43637e-11
2.43564e-11
2.43482e-11
2.43392e-11
2.43295e-11
2.43191e-11
2.43082e-11
2.42968e-11
2.42851e-11
2.42732e-11
2.42612e-11
2.42493e-11
2.42377e-11
2.42264e-11
2.43446e-11
2.43437e-11
2.43421e-11
2.43397e-11
2.43364e-11
2.43324e-11
2.43277e-11
2.43222e-11
2.43161e-11
2.43094e-11
2.43021e-11
2.42943e-11
2.42861e-11
2.42776e-11
2.42689e-11
2.426e-11
2.42511e-11
2.42422e-11
2.42335e-11
2.42251e-11
2.43137e-11
2.43131e-11
2.43119e-11
2.431e-11
2.43076e-11
2.43046e-11
2.4301e-11
2.42969e-11
2.42923e-11
2.42873e-11
2.42818e-11
2.4276e-11
2.42698e-11
2.42634e-11
2.42569e-11
2.42502e-11
2.42435e-11
2.42369e-11
2.42304e-11
2.42241e-11
2.42912e-11
2.42907e-11
2.42898e-11
2.42884e-11
2.42865e-11
2.42842e-11
2.42815e-11
2.42784e-11
2.42749e-11
2.42711e-11
2.4267e-11
2.42626e-11
2.42579e-11
2.42531e-11
2.42481e-11
2.42431e-11
2.4238e-11
2.4233e-11
2.42281e-11
2.42233e-11
2.42751e-11
2.42747e-11
2.4274e-11
2.42729e-11
2.42715e-11
2.42697e-11
2.42676e-11
2.42652e-11
2.42625e-11
2.42596e-11
2.42564e-11
2.4253e-11
2.42494e-11
2.42457e-11
2.42419e-11
2.4238e-11
2.42341e-11
2.42303e-11
2.42265e-11
2.42228e-11
2.42641e-11
2.42638e-11
2.42632e-11
2.42623e-11
2.42612e-11
2.42598e-11
2.42581e-11
2.42562e-11
2.4254e-11
2.42517e-11
2.42491e-11
2.42464e-11
2.42436e-11
2.42406e-11
2.42376e-11
2.42345e-11
2.42314e-11
2.42284e-11
2.42254e-11
2.42224e-11
2.42572e-11
2.42569e-11
2.42565e-11
2.42557e-11
2.42548e-11
2.42536e-11
2.42522e-11
2.42506e-11
2.42488e-11
2.42468e-11
2.42446e-11
2.42424e-11
2.424e-11
2.42375e-11
2.42349e-11
2.42324e-11
2.42298e-11
2.42272e-11
2.42247e-11
2.42222e-11
2.42539e-11
2.42537e-11
2.42532e-11
2.42526e-11
2.42517e-11
2.42506e-11
2.42493e-11
2.42479e-11
2.42462e-11
2.42444e-11
2.42425e-11
2.42404e-11
2.42382e-11
2.4236e-11
2.42337e-11
2.42313e-11
2.4229e-11
2.42266e-11
2.42243e-11
2.42221e-11
)
;

boundaryField
{
    topWall
    {
        type            zeroGradient;
    }
    bottomWall
    {
        type            zeroGradient;
    }
    sideWallL
    {
        type            symmetry;
    }
    sideWallR
    {
        type            zeroGradient;
    }
    frontAndBack
    {
        type            empty;
    }
}


// ************************************************************************* //
