/*--------------------------------*- C++ -*----------------------------------*\
  =========                 |
  \\      /  F ield         | OpenFOAM: The Open Source CFD Toolbox
   \\    /   O peration     | Website:  https://openfoam.org
    \\  /    A nd           | Version:  7
     \\/     M anipulation  |
\*---------------------------------------------------------------------------*/
FoamFile
{
    version     2.0;
    format      ascii;
    class       volScalarField;
    location    "38";
    object      rhot1;
}
// * * * * * * * * * * * * * * * * * * * * * * * * * * * * * * * * * * * * * //

dimensions      [1 -3 0 0 0 0 0];

internalField   nonuniform List<scalar> 
900
(
4.86689
4.86196
4.85184
4.83597
4.81347
4.78306
4.74294
4.69066
4.62284
4.53489
4.42043
4.27054
4.07248
3.80748
3.44631
2.94008
2.20543
1.16493
0.18031
8.5964e-05
0.588229
0.585505
0.579943
0.571311
0.559254
0.543288
0.522797
0.497039
0.465171
0.426316
0.379706
0.324951
0.262524
0.194532
0.125767
0.0645645
0.0216213
0.00296191
4.55366e-05
1.25114e-09
0.0654615
0.0649187
0.0638167
0.0621242
0.0597961
0.0567777
0.0530112
0.0484472
0.0430641
0.0368959
0.0300733
0.0228727
0.0157591
0.00938383
0.00446509
0.00147931
0.000263882
1.52102e-05
9.77649e-08
8.9306e-12
0.00704697
0.00695999
0.00678468
0.00651862
0.00615904
0.00570392
0.00515379
0.00451414
0.0037987
0.00303293
0.00225698
0.00152556
0.000901485
0.000439345
0.000161155
3.83718e-05
4.64008e-06
1.89053e-07
1.35244e-09
8.62875e-13
0.000736604
0.000724431
0.000700079
0.000663591
0.00061519
0.000555466
0.000485632
0.000407822
0.000325362
0.000242897
0.000166152
0.000101105
5.24691e-05
2.18438e-05
6.66843e-06
1.30695e-06
1.35316e-07
5.63549e-09
6.8713e-11
2.43313e-13
7.65696e-05
7.49939e-05
7.18653e-05
6.72372e-05
6.1211e-05
5.39584e-05
4.57478e-05
3.69649e-05
2.81168e-05
1.98016e-05
1.26257e-05
7.06971e-06
3.3347e-06
1.25146e-06
3.45589e-07
6.3221e-08
6.69402e-09
3.51946e-10
8.26171e-12
1.13369e-13
8.13781e-06
7.94049e-06
7.55145e-06
6.98284e-06
6.25517e-06
5.39936e-06
4.45851e-06
3.48795e-06
2.55227e-06
1.71774e-06
1.04013e-06
5.50538e-07
2.45309e-07
8.76499e-08
2.36146e-08
4.45281e-09
5.41448e-10
3.96664e-11
1.77261e-12
6.91397e-14
9.09796e-07
8.84948e-07
8.36264e-07
7.65861e-07
6.77111e-07
5.74776e-07
4.65017e-07
3.55117e-07
2.52804e-07
1.65108e-07
9.69444e-08
4.9887e-08
2.18001e-08
7.78657e-09
2.17476e-09
4.53017e-10
6.75332e-11
7.11036e-12
5.6936e-13
4.94334e-14
1.09975e-07
1.0672e-07
1.00375e-07
9.12778e-08
7.99485e-08
6.70872e-08
5.35514e-08
4.02936e-08
2.82504e-08
1.81933e-08
1.05748e-08
5.4318e-09
2.40545e-09
8.93248e-10
2.70212e-10
6.48981e-11
1.22145e-11
1.83735e-12
2.44641e-13
3.90747e-14
1.47372e-08
1.42803e-08
1.33929e-08
1.21289e-08
1.05682e-08
8.81571e-09
6.99444e-09
5.23497e-09
3.6588e-09
2.35898e-09
1.38301e-09
7.25267e-10
3.34121e-10
1.32746e-10
4.47395e-11
1.26656e-11
3.02809e-12
6.35179e-13
1.30314e-13
3.30042e-14
2.23654e-09
2.16607e-09
2.02959e-09
1.83592e-09
1.59806e-09
1.33257e-09
1.0584e-09
7.95061e-10
5.60081e-10
3.6636e-10
2.20056e-10
1.19923e-10
5.85796e-11
2.53721e-11
9.67574e-12
3.25244e-12
9.80073e-13
2.77409e-13
8.14897e-14
2.917e-14
3.90915e-10
3.78748e-10
3.55207e-10
3.21858e-10
2.80972e-10
2.35406e-10
1.88379e-10
1.43143e-10
1.02586e-10
6.88159e-11
4.28594e-11
2.4583e-11
1.28918e-11
6.15122e-12
2.66995e-12
1.0631e-12
3.97399e-13
1.4625e-13
5.74414e-14
2.66153e-14
7.96369e-11
7.72518e-11
7.26364e-11
6.60944e-11
5.80646e-11
4.9094e-11
3.97946e-11
3.07829e-11
2.26075e-11
1.56774e-11
1.02095e-11
6.21354e-12
3.5223e-12
1.85898e-12
9.17622e-13
4.29031e-13
1.94831e-13
8.9627e-14
4.42621e-14
2.48452e-14
1.90442e-11
1.85089e-11
1.74719e-11
1.59987e-11
1.41838e-11
1.21448e-11
1.00133e-11
7.92286e-12
5.99398e-12
4.3202e-12
2.95699e-12
1.91773e-12
1.17804e-12
6.87273e-13
3.83642e-13
2.07859e-13
1.11892e-13
6.18404e-14
3.64323e-14
2.35826e-14
5.361e-12
5.22306e-12
4.95527e-12
4.57346e-12
4.10047e-12
3.56481e-12
2.99857e-12
2.43473e-12
1.90382e-12
1.43067e-12
1.03176e-12
7.13925e-13
4.74794e-13
3.04882e-13
1.90661e-13
1.1771e-13
7.31224e-14
4.67649e-14
3.14858e-14
2.26619e-14
1.77532e-12
1.73455e-12
1.65521e-12
1.54157e-12
1.39982e-12
1.23775e-12
1.06421e-12
8.88435e-13
7.19256e-13
5.64205e-13
4.28808e-13
3.16133e-13
2.26744e-13
1.59061e-13
1.10032e-13
7.59137e-14
5.29632e-14
3.79178e-14
2.821e-14
2.19793e-14
6.89311e-13
6.7557e-13
6.48745e-13
6.10128e-13
5.61597e-13
5.05529e-13
4.44666e-13
3.81928e-13
3.20184e-13
2.6201e-13
2.09457e-13
1.63895e-13
1.25943e-13
9.55223e-14
7.19981e-14
5.43843e-14
4.15512e-14
3.23972e-14
2.59603e-14
2.14667e-14
3.12032e-13
3.06792e-13
2.96531e-13
2.81681e-13
2.62875e-13
2.40919e-13
2.16759e-13
1.91421e-13
1.65946e-13
1.41307e-13
1.18339e-13
9.76716e-14
7.96933e-14
6.45489e-14
5.21663e-14
4.2309e-14
3.46401e-14
2.87832e-14
2.43714e-14
2.1078e-14
1.6326e-13
1.61023e-13
1.5663e-13
1.50239e-13
1.42085e-13
1.32469e-13
1.2175e-13
1.10324e-13
9.86078e-14
8.70036e-14
7.58776e-14
6.55326e-14
5.61897e-14
4.79799e-14
4.09466e-14
3.5058e-14
3.02258e-14
2.63272e-14
2.32245e-14
2.07812e-14
9.75e-14
9.6444e-14
9.4364e-14
9.13236e-14
8.74171e-14
8.27675e-14
7.75229e-14
7.1851e-14
6.59308e-14
5.99434e-14
5.40607e-14
4.84353e-14
4.3191e-14
3.84176e-14
3.41681e-14
3.0461e-14
2.72855e-14
2.46085e-14
2.23826e-14
2.05532e-14
6.53611e-14
6.48166e-14
6.37414e-14
6.21629e-14
6.01221e-14
5.7673e-14
5.48818e-14
5.18243e-14
4.85839e-14
4.52474e-14
4.19008e-14
3.86243e-14
3.54884e-14
3.25504e-14
2.98519e-14
2.74188e-14
2.52616e-14
2.33782e-14
2.17565e-14
2.03774e-14
4.82368e-14
4.7934e-14
4.73348e-14
4.64518e-14
4.5304e-14
4.39169e-14
4.23218e-14
4.05556e-14
3.86595e-14
3.66776e-14
3.46553e-14
3.26367e-14
3.06629e-14
2.87698e-14
2.6987e-14
2.53363e-14
2.38321e-14
2.24818e-14
2.12863e-14
2.02416e-14
3.8424e-14
3.82446e-14
3.78889e-14
3.73631e-14
3.66765e-14
3.58418e-14
3.48748e-14
3.37944e-14
3.26222e-14
3.13819e-14
3.00984e-14
2.87971e-14
2.75025e-14
2.62374e-14
2.50218e-14
2.38724e-14
2.28021e-14
2.18198e-14
2.09306e-14
2.01364e-14
3.24523e-14
3.23403e-14
3.21179e-14
3.17881e-14
3.1356e-14
3.08282e-14
3.02129e-14
2.95205e-14
2.87628e-14
2.79531e-14
2.71058e-14
2.62359e-14
2.53585e-14
2.44883e-14
2.36388e-14
2.28221e-14
2.20484e-14
2.13257e-14
2.06599e-14
2.00548e-14
2.86358e-14
2.85628e-14
2.84176e-14
2.8202e-14
2.79186e-14
2.75711e-14
2.71641e-14
2.67034e-14
2.61958e-14
2.56491e-14
2.50719e-14
2.44734e-14
2.38633e-14
2.3251e-14
2.26458e-14
2.20563e-14
2.14902e-14
2.0954e-14
2.04532e-14
1.99916e-14
2.60987e-14
2.60495e-14
2.59515e-14
2.58057e-14
2.56136e-14
2.53773e-14
2.50995e-14
2.47837e-14
2.44339e-14
2.40548e-14
2.36518e-14
2.32307e-14
2.27978e-14
2.23593e-14
2.19217e-14
2.14911e-14
2.10731e-14
2.06729e-14
2.02949e-14
1.99426e-14
2.43586e-14
2.43245e-14
2.42565e-14
2.41552e-14
2.40216e-14
2.38568e-14
2.36626e-14
2.34409e-14
2.31944e-14
2.2926e-14
2.26392e-14
2.23377e-14
2.20257e-14
2.17075e-14
2.13875e-14
2.107e-14
2.07594e-14
2.04593e-14
2.01734e-14
1.99047e-14
2.31354e-14
2.31113e-14
2.30631e-14
2.29913e-14
2.28964e-14
2.27792e-14
2.26408e-14
2.24824e-14
2.23057e-14
2.21126e-14
2.19054e-14
2.16867e-14
2.14592e-14
2.12259e-14
2.09899e-14
2.07543e-14
2.05223e-14
2.02967e-14
2.00802e-14
1.98754e-14
2.22591e-14
2.22417e-14
2.2207e-14
2.21553e-14
2.20869e-14
2.20022e-14
2.19021e-14
2.17873e-14
2.1659e-14
2.15184e-14
2.13671e-14
2.12068e-14
2.10394e-14
2.08671e-14
2.0692e-14
2.05164e-14
2.03425e-14
2.01726e-14
2.00087e-14
1.98527e-14
2.1622e-14
2.16093e-14
2.1584e-14
2.15463e-14
2.14964e-14
2.14346e-14
2.13614e-14
2.12773e-14
2.11832e-14
2.10799e-14
2.09685e-14
2.08501e-14
2.07262e-14
2.05983e-14
2.04678e-14
2.03365e-14
2.02059e-14
2.00779e-14
1.99538e-14
1.98352e-14
2.11537e-14
2.11444e-14
2.11258e-14
2.1098e-14
2.10613e-14
2.10158e-14
2.09618e-14
2.08998e-14
2.08303e-14
2.07539e-14
2.06714e-14
2.05835e-14
2.04914e-14
2.0396e-14
2.02986e-14
2.02002e-14
2.01021e-14
2.00056e-14
1.99118e-14
1.98218e-14
2.08067e-14
2.07998e-14
2.0786e-14
2.07655e-14
2.07383e-14
2.07045e-14
2.06645e-14
2.06186e-14
2.0567e-14
2.05102e-14
2.04489e-14
2.03835e-14
2.03148e-14
2.02435e-14
2.01706e-14
2.00968e-14
2.00232e-14
1.99505e-14
1.98796e-14
1.98115e-14
2.05481e-14
2.0543e-14
2.05328e-14
2.05175e-14
2.04972e-14
2.04721e-14
2.04424e-14
2.04082e-14
2.03698e-14
2.03275e-14
2.02817e-14
2.0233e-14
2.01817e-14
2.01284e-14
2.00738e-14
2.00185e-14
1.99632e-14
1.99085e-14
1.98551e-14
1.98036e-14
2.03547e-14
2.03509e-14
2.03433e-14
2.03319e-14
2.03168e-14
2.02981e-14
2.02759e-14
2.02504e-14
2.02217e-14
2.01902e-14
2.0156e-14
2.01196e-14
2.00812e-14
2.00414e-14
2.00006e-14
1.99591e-14
1.99176e-14
1.98765e-14
1.98364e-14
1.97976e-14
2.02097e-14
2.02069e-14
2.02012e-14
2.01927e-14
2.01814e-14
2.01674e-14
2.01509e-14
2.01318e-14
2.01104e-14
2.00869e-14
2.00614e-14
2.00342e-14
2.00055e-14
1.99758e-14
1.99452e-14
1.99142e-14
1.98831e-14
1.98523e-14
1.98222e-14
1.9793e-14
2.0101e-14
2.00989e-14
2.00946e-14
2.00883e-14
2.00798e-14
2.00694e-14
2.0057e-14
2.00428e-14
2.00268e-14
2.00093e-14
1.99902e-14
1.99699e-14
1.99485e-14
1.99263e-14
1.99035e-14
1.98803e-14
1.9857e-14
1.9834e-14
1.98114e-14
1.97896e-14
2.00195e-14
2.00179e-14
2.00147e-14
2.001e-14
2.00037e-14
1.99959e-14
1.99867e-14
1.9976e-14
1.99641e-14
1.9951e-14
1.99368e-14
1.99216e-14
1.99057e-14
1.98891e-14
1.9872e-14
1.98547e-14
1.98374e-14
1.98201e-14
1.98033e-14
1.97869e-14
1.99586e-14
1.99574e-14
1.9955e-14
1.99515e-14
1.99468e-14
1.99409e-14
1.9934e-14
1.99261e-14
1.99172e-14
1.99074e-14
1.98968e-14
1.98855e-14
1.98736e-14
1.98612e-14
1.98485e-14
1.98356e-14
1.98226e-14
1.98098e-14
1.97972e-14
1.9785e-14
1.99132e-14
1.99123e-14
1.99105e-14
1.99079e-14
1.99043e-14
1.99e-14
1.98948e-14
1.98889e-14
1.98822e-14
1.98749e-14
1.9867e-14
1.98585e-14
1.98497e-14
1.98404e-14
1.98309e-14
1.98213e-14
1.98116e-14
1.9802e-14
1.97926e-14
1.97835e-14
1.98797e-14
1.9879e-14
1.98776e-14
1.98756e-14
1.9873e-14
1.98697e-14
1.98658e-14
1.98614e-14
1.98564e-14
1.98509e-14
1.9845e-14
1.98386e-14
1.9832e-14
1.9825e-14
1.98179e-14
1.98107e-14
1.98035e-14
1.97963e-14
1.97892e-14
1.97824e-14
1.98552e-14
1.98546e-14
1.98536e-14
1.98521e-14
1.98501e-14
1.98476e-14
1.98447e-14
1.98413e-14
1.98375e-14
1.98334e-14
1.98289e-14
1.98241e-14
1.9819e-14
1.98138e-14
1.98084e-14
1.9803e-14
1.97975e-14
1.97921e-14
1.97868e-14
1.97816e-14
1.98377e-14
1.98373e-14
1.98365e-14
1.98353e-14
1.98338e-14
1.98319e-14
1.98296e-14
1.9827e-14
1.98241e-14
1.98209e-14
1.98174e-14
1.98137e-14
1.98098e-14
1.98058e-14
1.98017e-14
1.97975e-14
1.97933e-14
1.97891e-14
1.9785e-14
1.9781e-14
1.98257e-14
1.98254e-14
1.98248e-14
1.98238e-14
1.98226e-14
1.98211e-14
1.98193e-14
1.98172e-14
1.98149e-14
1.98123e-14
1.98095e-14
1.98066e-14
1.98035e-14
1.98003e-14
1.9797e-14
1.97937e-14
1.97904e-14
1.9787e-14
1.97838e-14
1.97806e-14
1.98183e-14
1.9818e-14
1.98175e-14
1.98167e-14
1.98156e-14
1.98144e-14
1.98128e-14
1.98111e-14
1.98091e-14
1.9807e-14
1.98047e-14
1.98022e-14
1.97996e-14
1.97969e-14
1.97942e-14
1.97914e-14
1.97886e-14
1.97858e-14
1.9783e-14
1.97804e-14
1.98147e-14
1.98145e-14
1.9814e-14
1.98133e-14
1.98123e-14
1.98111e-14
1.98098e-14
1.98082e-14
1.98064e-14
1.98044e-14
1.98023e-14
1.98001e-14
1.97977e-14
1.97953e-14
1.97928e-14
1.97902e-14
1.97877e-14
1.97852e-14
1.97827e-14
1.97803e-14
)
;

boundaryField
{
    topWall
    {
        type            zeroGradient;
    }
    bottomWall
    {
        type            zeroGradient;
    }
    sideWallL
    {
        type            symmetry;
    }
    sideWallR
    {
        type            calculated;
        value           uniform 0;
    }
    frontAndBack
    {
        type            empty;
    }
}


// ************************************************************************* //
