/*--------------------------------*- C++ -*----------------------------------*\
  =========                 |
  \\      /  F ield         | OpenFOAM: The Open Source CFD Toolbox
   \\    /   O peration     | Website:  https://openfoam.org
    \\  /    A nd           | Version:  7
     \\/     M anipulation  |
\*---------------------------------------------------------------------------*/
FoamFile
{
    version     2.0;
    format      ascii;
    class       volScalarField;
    location    "38";
    object      rhot2;
}
// * * * * * * * * * * * * * * * * * * * * * * * * * * * * * * * * * * * * * //

dimensions      [1 -3 0 0 0 0 0];

internalField   nonuniform List<scalar> 
900
(
0.914893
0.912357
0.907168
0.899083
0.887724
0.87256
0.852887
0.827798
0.796162
0.756599
0.707486
0.64701
0.573308
0.484772
0.380626
0.262236
0.137571
0.0355192
0.000844972
2.71827e-10
0.00887701
0.00879493
0.00862852
0.00837347
0.00802376
0.0075724
0.00701265
0.00634008
0.00555566
0.0046703
0.00371063
0.00272507
0.00178715
0.000989547
0.000419702
0.000113518
1.33463e-05
2.74313e-07
7.89162e-11
9.9438e-20
0.000115763
0.000113893
0.000110143
0.000104503
9.69819e-05
8.76402e-05
7.66329e-05
6.42651e-05
5.1048e-05
3.77363e-05
2.5307e-05
1.48258e-05
7.16145e-06
2.60199e-06
6.10233e-07
7.05955e-08
2.43869e-09
9.2862e-12
4.89565e-16
6.51341e-24
1.47629e-06
1.44096e-06
1.37101e-06
1.26809e-06
1.13522e-06
9.7733e-07
8.01881e-07
6.19197e-07
4.42195e-07
2.85e-07
1.60113e-07
7.45593e-08
2.67082e-08
6.5683e-09
9.27624e-10
5.63615e-11
9.12665e-13
1.76956e-15
1.15475e-19
6.8846e-26
1.78798e-08
1.73082e-08
1.61917e-08
1.45867e-08
1.25838e-08
1.03113e-08
7.93421e-09
5.64389e-09
3.63253e-09
2.05382e-09
9.79075e-10
3.71458e-10
1.03293e-10
1.86834e-11
1.8447e-12
7.67097e-14
9.18571e-16
1.86293e-18
3.45502e-22
5.87663e-27
2.14536e-10
2.06011e-10
1.89584e-10
1.66505e-10
1.38643e-10
1.08414e-10
7.85719e-11
5.18434e-11
3.04034e-11
1.53426e-11
6.3772e-12
2.0573e-12
4.74918e-13
7.01783e-14
5.70031e-15
2.07375e-16
2.59771e-18
8.31968e-21
5.55931e-24
1.33488e-27
2.69064e-12
2.56489e-12
2.32556e-12
1.99633e-12
1.61078e-12
1.20901e-12
8.32273e-13
5.15618e-13
2.80397e-13
1.29525e-13
4.86847e-14
1.40748e-14
2.90827e-15
3.90656e-16
3.02585e-17
1.16887e-18
1.92073e-20
1.17765e-22
2.77238e-25
5.12041e-28
3.72838e-14
3.53242e-14
3.16344e-14
2.66496e-14
2.09602e-14
1.52279e-14
1.00736e-14
5.95444e-15
3.06923e-15
1.33727e-15
4.73414e-16
1.29579e-16
2.57858e-17
3.46309e-18
2.87954e-19
1.35225e-20
3.31131e-22
4.12792e-24
3.04101e-26
2.67533e-28
6.02246e-16
5.67983e-16
5.0401e-16
4.18799e-16
3.23445e-16
2.29773e-16
1.48078e-16
8.5042e-17
4.2556e-17
1.80439e-17
6.26448e-18
1.7091e-18
3.49201e-19
5.0623e-20
4.92235e-21
3.05469e-22
1.18041e-23
2.95723e-25
5.88956e-27
1.69824e-28
1.19071e-17
1.1198e-17
9.88186e-18
8.1455e-18
6.22765e-18
4.37356e-18
2.78566e-18
1.58356e-18
7.87726e-19
3.34822e-19
1.18246e-19
3.36034e-20
7.41919e-21
1.22781e-21
1.47526e-22
1.26304e-23
7.79436e-25
3.74254e-26
1.73546e-27
1.22576e-28
3.00393e-19
2.82227e-19
2.48612e-19
2.0448e-19
1.56035e-19
1.09512e-19
6.99066e-20
4.00305e-20
2.02255e-20
8.84464e-21
3.27581e-21
1.00383e-21
2.48583e-22
4.87152e-23
7.4547e-24
8.9321e-25
8.66931e-26
7.48128e-27
6.99238e-28
9.65851e-29
9.9928e-21
9.39589e-21
8.29184e-21
6.84291e-21
5.25178e-21
3.72059e-21
2.4103e-21
1.41173e-21
7.37769e-22
3.38975e-22
1.34785e-22
4.56572e-23
1.29929e-23
3.07745e-24
6.06718e-25
1.01264e-25
1.49858e-26
2.16088e-27
3.55722e-28
8.09346e-29
4.48649e-22
4.22856e-22
3.75056e-22
3.12092e-22
2.4252e-22
1.74918e-22
1.16211e-22
7.04894e-23
3.86478e-23
1.8951e-23
8.22349e-24
3.12854e-24
1.03689e-24
2.99211e-25
7.58758e-26
1.7343e-26
3.75609e-27
8.37475e-28
2.15145e-28
7.08773e-29
2.75665e-23
2.60788e-23
2.33106e-23
1.96383e-23
1.55361e-23
1.14862e-23
7.89014e-24
5.00269e-24
2.90713e-24
1.53751e-24
7.35503e-25
3.1691e-25
1.22927e-25
4.31636e-26
1.39262e-26
4.24782e-27
1.28283e-27
4.08957e-28
1.47858e-28
6.40982e-29
2.33086e-24
2.21565e-24
2.0001e-24
1.71134e-24
1.38402e-24
1.05421e-24
7.53133e-25
5.02352e-25
3.1144e-25
1.7875e-25
9.47275e-26
4.63392e-26
2.09997e-26
8.89776e-27
3.58575e-27
1.41193e-27
5.63836e-28
2.38652e-28
1.11653e-28
5.93632e-29
2.70897e-25
2.58945e-25
2.36432e-25
2.05922e-25
1.70741e-25
1.34447e-25
1.00265e-25
7.06219e-26
4.68676e-26
2.92607e-26
1.71861e-26
9.51945e-27
5.00217e-27
2.52006e-27
1.23711e-27
6.05018e-28
3.02766e-28
1.59404e-28
9.03862e-29
5.59661e-29
4.30057e-26
4.13585e-26
3.82328e-26
3.39427e-26
2.89031e-26
2.35713e-26
1.8382e-26
1.36899e-26
9.72893e-27
6.59903e-27
4.27953e-27
2.66372e-27
1.6019e-27
9.4002e-28
5.45488e-28
3.1815e-28
1.89821e-28
1.17803e-28
7.7039e-29
5.3479e-29
9.22499e-27
8.92755e-27
8.35879e-27
7.56784e-27
6.62092e-27
5.5932e-27
4.55961e-27
3.58584e-27
2.72136e-27
1.99549e-27
1.41733e-27
9.79164e-28
6.61959e-28
4.4147e-28
2.93325e-28
1.9632e-28
1.33838e-28
9.38651e-29
6.82318e-29
5.16298e-29
2.62925e-27
2.56019e-27
2.42715e-27
2.23974e-27
2.01122e-27
1.75705e-27
1.49334e-27
1.23516e-27
9.95074e-28
7.82083e-28
6.01216e-28
4.53716e-28
3.37772e-28
2.49542e-28
1.84206e-28
1.36848e-28
1.03032e-28
7.9094e-29
6.21945e-29
5.02388e-29
9.71223e-28
9.51101e-28
9.12063e-28
8.56421e-28
7.87415e-28
7.08935e-28
6.25193e-28
5.40355e-28
4.58182e-28
3.81737e-28
3.13192e-28
2.53767e-28
2.03796e-28
1.62895e-28
1.30185e-28
1.04518e-28
8.46704e-29
6.94818e-29
5.79341e-29
4.91831e-29
4.49696e-28
4.42548e-28
4.28594e-28
4.08498e-28
3.83205e-28
3.53881e-28
3.21829e-28
2.88401e-28
2.54898e-28
2.22481e-28
1.92093e-28
1.64416e-28
1.39861e-28
1.18578e-28
1.00507e-28
8.54322e-29
7.30385e-29
6.29682e-29
5.486e-29
4.83768e-29
2.5103e-28
2.4803e-28
2.42143e-28
2.33592e-28
2.22697e-28
2.09862e-28
1.95553e-28
1.80273e-28
1.64531e-28
1.48811e-28
1.33547e-28
1.19097e-28
1.05728e-28
9.3617e-29
8.28489e-29
7.34334e-29
6.53199e-29
5.84159e-29
5.26043e-29
4.7758e-29
1.62435e-28
1.60993e-28
1.58152e-28
1.53996e-28
1.48649e-28
1.42269e-28
1.35044e-28
1.27183e-28
1.18907e-28
1.10438e-28
1.01986e-28
9.37411e-29
8.58646e-29
7.84822e-29
7.16829e-29
6.55199e-29
6.00137e-29
5.51584e-29
5.09278e-29
4.72815e-29
1.17633e-28
1.16862e-28
1.15337e-28
1.13093e-28
1.10185e-28
1.0668e-28
1.02662e-28
9.82276e-29
9.34802e-29
8.85291e-29
8.34834e-29
7.84477e-29
7.35172e-29
6.87748e-29
6.42878e-29
6.01069e-29
5.62665e-29
5.27856e-29
4.96697e-29
4.69139e-29
9.26428e-29
9.21939e-29
9.13043e-29
8.99905e-29
8.82771e-29
8.61968e-29
8.379e-29
8.11039e-29
7.81915e-29
7.51103e-29
7.19198e-29
6.86797e-29
6.54477e-29
6.22769e-29
5.92146e-29
5.63004e-29
5.35657e-29
5.10336e-29
4.87191e-29
4.66299e-29
7.76104e-29
7.7332e-29
7.67791e-29
7.59599e-29
7.48869e-29
7.35767e-29
7.20501e-29
7.03322e-29
6.84517e-29
6.64405e-29
6.43326e-29
6.21638e-29
5.99694e-29
5.77841e-29
5.56403e-29
5.35668e-29
5.15889e-29
4.9727e-29
4.79971e-29
4.64104e-29
6.80326e-29
6.78511e-29
6.74904e-29
6.69546e-29
6.62506e-29
6.53872e-29
6.4376e-29
6.32309e-29
6.19685e-29
6.06072e-29
5.91676e-29
5.76716e-29
5.61417e-29
5.46007e-29
5.30707e-29
5.15725e-29
5.01252e-29
4.87453e-29
4.74468e-29
4.62408e-29
6.16574e-29
6.15347e-29
6.12905e-29
6.09272e-29
6.04486e-29
5.98598e-29
5.91676e-29
5.83801e-29
5.75073e-29
5.65604e-29
5.55522e-29
5.44966e-29
5.34085e-29
5.23029e-29
5.11953e-29
5.01004e-29
4.90324e-29
4.8004e-29
4.70266e-29
4.61099e-29
5.72715e-29
5.71862e-29
5.70162e-29
5.6763e-29
5.64288e-29
5.60169e-29
5.55311e-29
5.49767e-29
5.43597e-29
5.36873e-29
5.29679e-29
5.22104e-29
5.14248e-29
5.06215e-29
4.98112e-29
4.90044e-29
4.82114e-29
4.74421e-29
4.67053e-29
4.60089e-29
5.41781e-29
5.41175e-29
5.39967e-29
5.38166e-29
5.35786e-29
5.32848e-29
5.29375e-29
5.25403e-29
5.20969e-29
5.16122e-29
5.10916e-29
5.05412e-29
4.99679e-29
4.93787e-29
4.87813e-29
4.81833e-29
4.75922e-29
4.70154e-29
4.64597e-29
4.59312e-29
5.19555e-29
5.19117e-29
5.18246e-29
5.16945e-29
5.15225e-29
5.13099e-29
5.10583e-29
5.07699e-29
5.04475e-29
5.00941e-29
4.97136e-29
4.93101e-29
4.88883e-29
4.84534e-29
4.80107e-29
4.75657e-29
4.7124e-29
4.6691e-29
4.62719e-29
4.58715e-29
5.03365e-29
5.03046e-29
5.02409e-29
5.0146e-29
5.00204e-29
4.98649e-29
4.96808e-29
4.94696e-29
4.9233e-29
4.89733e-29
4.86932e-29
4.83955e-29
4.80836e-29
4.77611e-29
4.74319e-29
4.70999e-29
4.67694e-29
4.64443e-29
4.61285e-29
4.58257e-29
4.91454e-29
4.9122e-29
4.90752e-29
4.90053e-29
4.89129e-29
4.87984e-29
4.86628e-29
4.8507e-29
4.83324e-29
4.81405e-29
4.79333e-29
4.77127e-29
4.74812e-29
4.72414e-29
4.69961e-29
4.67482e-29
4.65008e-29
4.62568e-29
4.60192e-29
4.57907e-29
4.82632e-29
4.82459e-29
4.82113e-29
4.81596e-29
4.80912e-29
4.80065e-29
4.79061e-29
4.77907e-29
4.76614e-29
4.75191e-29
4.73653e-29
4.72014e-29
4.70293e-29
4.68507e-29
4.66678e-29
4.64826e-29
4.62975e-29
4.61145e-29
4.5936e-29
4.5764e-29
4.76068e-29
4.75939e-29
4.75682e-29
4.75299e-29
4.74791e-29
4.74163e-29
4.73417e-29
4.72561e-29
4.716e-29
4.70543e-29
4.69399e-29
4.6818e-29
4.66899e-29
4.65568e-29
4.64204e-29
4.62821e-29
4.61437e-29
4.60067e-29
4.58729e-29
4.57437e-29
4.71172e-29
4.71077e-29
4.70886e-29
4.706e-29
4.70223e-29
4.69755e-29
4.69201e-29
4.68564e-29
4.67849e-29
4.67063e-29
4.66212e-29
4.65305e-29
4.6435e-29
4.63359e-29
4.62342e-29
4.6131e-29
4.60276e-29
4.59253e-29
4.58251e-29
4.57283e-29
4.67519e-29
4.67447e-29
4.67305e-29
4.67093e-29
4.66812e-29
4.66463e-29
4.66051e-29
4.65577e-29
4.65044e-29
4.64459e-29
4.63826e-29
4.6315e-29
4.6244e-29
4.61701e-29
4.60943e-29
4.60174e-29
4.59403e-29
4.58639e-29
4.5789e-29
4.57167e-29
4.64795e-29
4.64742e-29
4.64636e-29
4.64478e-29
4.64268e-29
4.64008e-29
4.63701e-29
4.63347e-29
4.62951e-29
4.62515e-29
4.62043e-29
4.6154e-29
4.61011e-29
4.60461e-29
4.59896e-29
4.59323e-29
4.58748e-29
4.58178e-29
4.5762e-29
4.57079e-29
4.62772e-29
4.62732e-29
4.62653e-29
4.62535e-29
4.62378e-29
4.62184e-29
4.61954e-29
4.61691e-29
4.61395e-29
4.61069e-29
4.60718e-29
4.60342e-29
4.59948e-29
4.59537e-29
4.59116e-29
4.58689e-29
4.5826e-29
4.57835e-29
4.57418e-29
4.57014e-29
4.61279e-29
4.61249e-29
4.6119e-29
4.61101e-29
4.60983e-29
4.60838e-29
4.60666e-29
4.60468e-29
4.60246e-29
4.60002e-29
4.59739e-29
4.59458e-29
4.59162e-29
4.58855e-29
4.5854e-29
4.5822e-29
4.57899e-29
4.5758e-29
4.57268e-29
4.56966e-29
4.6019e-29
4.60168e-29
4.60123e-29
4.60055e-29
4.59966e-29
4.59856e-29
4.59726e-29
4.59576e-29
4.59408e-29
4.59224e-29
4.59024e-29
4.58812e-29
4.58589e-29
4.58357e-29
4.58119e-29
4.57877e-29
4.57635e-29
4.57394e-29
4.57159e-29
4.5693e-29
4.59414e-29
4.59396e-29
4.59362e-29
4.5931e-29
4.59241e-29
4.59156e-29
4.59055e-29
4.5894e-29
4.58811e-29
4.58669e-29
4.58515e-29
4.58352e-29
4.5818e-29
4.58002e-29
4.57819e-29
4.57633e-29
4.57447e-29
4.57262e-29
4.57081e-29
4.56905e-29
4.58884e-29
4.5887e-29
4.58842e-29
4.588e-29
4.58746e-29
4.58678e-29
4.58598e-29
4.58506e-29
4.58403e-29
4.58289e-29
4.58167e-29
4.58037e-29
4.57901e-29
4.57759e-29
4.57613e-29
4.57466e-29
4.57318e-29
4.57171e-29
4.57027e-29
4.56888e-29
4.58554e-29
4.58542e-29
4.58518e-29
4.58483e-29
4.58437e-29
4.5838e-29
4.58313e-29
4.58235e-29
4.58149e-29
4.58054e-29
4.57951e-29
4.57842e-29
4.57727e-29
4.57608e-29
4.57486e-29
4.57362e-29
4.57238e-29
4.57115e-29
4.56994e-29
4.56877e-29
4.58395e-29
4.58385e-29
4.58363e-29
4.58332e-29
4.5829e-29
4.58238e-29
4.58176e-29
4.58106e-29
4.58027e-29
4.57941e-29
4.57847e-29
4.57748e-29
4.57644e-29
4.57536e-29
4.57425e-29
4.57312e-29
4.57199e-29
4.57088e-29
4.56978e-29
4.56872e-29
)
;

boundaryField
{
    topWall
    {
        type            zeroGradient;
    }
    bottomWall
    {
        type            zeroGradient;
    }
    sideWallL
    {
        type            symmetry;
    }
    sideWallR
    {
        type            zeroGradient;
    }
    frontAndBack
    {
        type            empty;
    }
}


// ************************************************************************* //
