/*--------------------------------*- C++ -*----------------------------------*\
  =========                 |
  \\      /  F ield         | OpenFOAM: The Open Source CFD Toolbox
   \\    /   O peration     | Website:  https://openfoam.org
    \\  /    A nd           | Version:  7
     \\/     M anipulation  |
\*---------------------------------------------------------------------------*/
FoamFile
{
    version     2.0;
    format      ascii;
    class       volScalarField;
    location    "38";
    object      T;
}
// * * * * * * * * * * * * * * * * * * * * * * * * * * * * * * * * * * * * * //

dimensions      [0 0 0 1 0 0 0];

internalField   nonuniform List<scalar> 
900
(
615.283
615.236
615.139
614.987
614.773
614.484
614.104
613.613
612.98
612.165
611.114
609.753
607.978
605.633
602.472
598.016
591.071
577.922
545.114
441.095
564.356
564.254
564.046
563.721
563.26
562.638
561.82
560.756
559.379
557.594
555.27
552.218
548.163
542.68
535.086
524.194
507.736
480.903
432.735
342.798
527.766
527.623
527.33
526.87
526.221
525.346
524.195
522.7
520.768
518.267
515.018
510.762
505.124
497.547
487.171
472.637
451.749
421.007
375.419
310.925
496.165
495.981
495.604
495.014
494.182
493.064
491.598
489.704
487.267
484.138
480.108
474.892
468.094
459.156
447.289
431.388
409.957
381.177
343.466
297.316
467.683
467.465
467.019
466.324
465.346
464.036
462.328
460.133
457.334
453.773
449.243
443.472
436.095
426.64
414.495
398.907
379.03
354.125
324.044
290.097
442.037
441.795
441.3
440.53
439.45
438.011
436.145
433.765
430.755
426.968
422.215
416.257
408.796
399.469
387.851
373.49
355.982
335.148
311.314
285.66
419.09
418.833
418.308
417.495
416.357
414.849
412.906
410.446
407.364
403.531
398.784
392.93
385.741
376.959
366.315
353.568
338.574
321.4
302.468
282.671
398.693
398.43
397.894
397.065
395.91
394.387
392.438
389.988
386.949
383.21
378.641
373.094
366.403
358.398
348.924
337.872
325.232
311.162
296.048
280.535
380.678
380.417
379.885
379.065
377.928
376.435
374.536
372.169
369.259
365.717
361.443
356.328
350.259
343.13
334.861
325.423
314.867
303.367
291.24
278.949
364.863
364.61
364.096
363.304
362.211
360.784
358.979
356.746
354.025
350.747
346.838
342.22
336.821
330.58
323.464
315.486
306.72
297.326
287.555
277.74
351.058
350.818
350.331
349.583
348.554
347.217
345.537
343.472
340.978
338.001
334.489
330.39
325.658
320.264
314.204
307.507
300.255
292.582
284.684
276.801
339.071
338.847
338.394
337.7
336.749
335.518
333.981
332.105
329.855
327.194
324.085
320.494
316.397
311.782
306.66
301.07
295.085
288.818
282.417
276.061
328.714
328.508
328.093
327.46
326.594
325.479
324.093
322.413
320.412
318.065
315.346
312.235
308.721
304.804
300.502
295.855
290.926
285.807
280.612
275.473
319.807
319.622
319.247
318.676
317.899
316.902
315.67
314.183
312.425
310.377
308.023
305.354
302.364
299.061
295.467
291.616
287.565
283.385
279.164
275.001
312.182
312.017
311.683
311.175
310.486
309.605
308.521
307.221
305.692
303.922
301.903
299.63
297.103
294.335
291.344
288.163
284.838
281.427
277.997
274.622
305.683
305.536
305.242
304.796
304.191
303.421
302.478
301.351
300.033
298.518
296.799
294.876
292.754
290.444
287.965
285.345
282.621
279.839
277.052
274.315
300.165
300.038
299.781
299.392
298.867
298.2
297.386
296.419
295.293
294.004
292.551
290.935
289.162
287.243
285.195
283.043
280.815
278.549
276.285
274.066
295.5
295.39
295.168
294.832
294.38
293.808
293.112
292.287
291.332
290.244
289.023
287.672
286.198
284.61
282.925
281.161
279.343
277.499
275.662
273.863
291.571
291.477
291.287
291
290.614
290.126
289.535
288.837
288.032
287.119
286.099
284.976
283.755
282.447
281.064
279.623
278.142
276.644
275.155
273.699
288.275
288.195
288.033
287.789
287.462
287.05
286.552
285.966
285.291
284.529
283.682
282.752
281.746
280.672
279.541
278.366
277.162
275.948
274.742
273.565
285.521
285.453
285.316
285.111
284.835
284.489
284.072
283.582
283.021
282.389
281.688
280.922
280.096
279.217
278.295
277.339
276.363
275.38
274.406
273.456
283.227
283.17
283.056
282.884
282.653
282.365
282.017
281.61
281.146
280.624
280.047
279.418
278.743
278.027
277.277
276.502
275.712
274.919
274.133
273.367
281.325
281.277
281.182
281.039
280.847
280.608
280.32
279.984
279.601
279.172
278.7
278.186
277.636
277.054
276.446
275.82
275.183
274.543
273.911
273.295
279.752
279.713
279.634
279.515
279.357
279.16
278.923
278.647
278.333
277.982
277.597
277.179
276.733
276.262
275.77
275.265
274.752
274.239
273.731
273.237
278.458
278.425
278.36
278.263
278.133
277.971
277.777
277.551
277.295
277.01
276.697
276.358
275.997
275.617
275.221
274.815
274.404
273.992
273.585
273.19
277.395
277.369
277.316
277.236
277.13
276.998
276.839
276.656
276.448
276.217
275.964
275.69
275.399
275.094
274.776
274.451
274.121
273.792
273.467
273.151
276.527
276.506
276.463
276.398
276.311
276.204
276.076
275.927
275.759
275.572
275.368
275.149
274.915
274.67
274.416
274.156
273.893
273.631
273.372
273.121
275.821
275.803
275.768
275.716
275.646
275.559
275.455
275.336
275.2
275.05
274.887
274.711
274.524
274.328
274.126
273.919
273.71
273.501
273.295
273.096
275.247
275.233
275.205
275.163
275.107
275.037
274.954
274.857
274.749
274.629
274.498
274.358
274.209
274.053
273.892
273.728
273.562
273.397
273.234
273.076
274.784
274.773
274.75
274.716
274.671
274.615
274.549
274.472
274.386
274.29
274.186
274.074
273.956
273.833
273.705
273.575
273.444
273.313
273.185
273.06
274.411
274.402
274.384
274.357
274.321
274.277
274.224
274.163
274.094
274.018
273.935
273.847
273.753
273.656
273.555
273.453
273.349
273.246
273.145
273.047
274.112
274.105
274.091
274.069
274.041
274.005
273.963
273.915
273.86
273.8
273.735
273.666
273.592
273.515
273.436
273.355
273.274
273.193
273.114
273.037
273.873
273.868
273.856
273.839
273.817
273.789
273.756
273.717
273.675
273.627
273.576
273.521
273.463
273.403
273.341
273.278
273.214
273.151
273.089
273.029
273.683
273.679
273.67
273.657
273.639
273.617
273.591
273.561
273.527
273.49
273.45
273.407
273.362
273.315
273.266
273.217
273.167
273.118
273.069
273.022
273.533
273.529
273.522
273.512
273.498
273.481
273.46
273.437
273.411
273.382
273.35
273.317
273.281
273.245
273.207
273.169
273.13
273.092
273.054
273.017
273.414
273.412
273.406
273.398
273.387
273.374
273.358
273.339
273.319
273.296
273.272
273.246
273.218
273.19
273.16
273.131
273.101
273.071
273.042
273.014
273.321
273.319
273.315
273.308
273.3
273.29
273.277
273.263
273.247
273.229
273.21
273.19
273.169
273.147
273.124
273.101
273.078
273.055
273.032
273.01
273.249
273.247
273.244
273.239
273.232
273.224
273.214
273.203
273.191
273.177
273.163
273.147
273.131
273.113
273.096
273.078
273.06
273.042
273.025
273.008
273.193
273.191
273.189
273.185
273.18
273.173
273.166
273.157
273.148
273.137
273.126
273.114
273.101
273.088
273.074
273.06
273.046
273.033
273.019
273.006
273.15
273.149
273.147
273.144
273.14
273.135
273.129
273.122
273.115
273.107
273.098
273.088
273.078
273.068
273.058
273.047
273.036
273.025
273.015
273.005
273.118
273.117
273.115
273.113
273.11
273.106
273.101
273.096
273.09
273.084
273.077
273.069
273.061
273.053
273.045
273.037
273.028
273.02
273.012
273.004
273.094
273.093
273.092
273.09
273.087
273.084
273.081
273.076
273.072
273.067
273.061
273.055
273.049
273.042
273.036
273.029
273.022
273.016
273.009
273.003
273.077
273.077
273.076
273.074
273.072
273.069
273.066
273.063
273.059
273.055
273.05
273.045
273.04
273.035
273.03
273.024
273.018
273.013
273.008
273.002
273.067
273.066
273.065
273.064
273.062
273.06
273.057
273.054
273.051
273.047
273.043
273.039
273.035
273.03
273.025
273.021
273.016
273.011
273.007
273.002
273.062
273.061
273.06
273.059
273.058
273.055
273.053
273.05
273.047
273.044
273.04
273.036
273.032
273.028
273.024
273.019
273.015
273.01
273.006
273.002
)
;

boundaryField
{
    topWall
    {
        type            zeroGradient;
    }
    bottomWall
    {
        type            codedFixedValue;
        value           uniform 653;
        name            heating;
        code            #{
            const scalar t = this->db().time().value();
            const scalar Ttemp = 273 + 10*t;
            operator==(Ttemp);
        #};
    }
    sideWallL
    {
        type            symmetry;
    }
    sideWallR
    {
        type            fixedValue;
        value           uniform 273;
    }
    frontAndBack
    {
        type            empty;
    }
}


// ************************************************************************* //
