/*--------------------------------*- C++ -*----------------------------------*\
  =========                 |
  \\      /  F ield         | OpenFOAM: The Open Source CFD Toolbox
   \\    /   O peration     | Website:  https://openfoam.org
    \\  /    A nd           | Version:  7
     \\/     M anipulation  |
\*---------------------------------------------------------------------------*/
FoamFile
{
    version     2.0;
    format      ascii;
    class       volScalarField;
    location    "5";
    object      gradTy;
}
// * * * * * * * * * * * * * * * * * * * * * * * * * * * * * * * * * * * * * //

dimensions      [0 -1 0 1 0 0 0];

internalField   nonuniform List<scalar> 
900
(
-70963.6
-70963.8
-70964.1
-70964.7
-70966
-70968.8
-70974.4
-70985.5
-71007.6
-71050.7
-71134.2
-71294.7
-71601.7
-72189.4
-73323.3
-75550.9
-80073
-89748.2
-112092
-169076
-53487.7
-53487.8
-53488.1
-53488.6
-53489.7
-53492
-53496.6
-53505.6
-53523.2
-53557.1
-53621.4
-53741.6
-53963.2
-54365.2
-55080.4
-56313.8
-58305
-60965
-61946.4
-47571.7
-39441.5
-39441.6
-39441.7
-39442.1
-39442.8
-39444.3
-39447.2
-39452.8
-39463.3
-39482.8
-39517.8
-39578.5
-39679.1
-39833.9
-40041.5
-40229.1
-40087.6
-38618.1
-33043.1
-17009.6
-28409.2
-28409.2
-28409.3
-28409.4
-28409.7
-28410.3
-28411.4
-28413.2
-28416.2
-28420.7
-28426.3
-28429.9
-28421.4
-28371.4
-28205.4
-27743.9
-26583.7
-23888.4
-18158.1
-7521.11
-19960.8
-19960.8
-19960.8
-19960.8
-19960.7
-19960.5
-19959.9
-19958.6
-19955.4
-19947.9
-19931.2
-19894.2
-19814
-19644.2
-19292.4
-18583.9
-17207.3
-14666.4
-10332.1
-3842.47
-13664.9
-13664.9
-13664.8
-13664.7
-13664.3
-13663.5
-13661.8
-13658.3
-13651.1
-13636.5
-13607.3
-13549.6
-13438.1
-13226.7
-12835.7
-12134.5
-10927
-8962.53
-6019.3
-2124.75
-9105.98
-9105.94
-9105.82
-9105.57
-9105.04
-9103.95
-9101.72
-9097.24
-9088.37
-9071.11
-9038.15
-8976.49
-8863.72
-8662.72
-8315.18
-7736.08
-6815.31
-5438.44
-3543.55
-1218.22
-5902.07
-5902.02
-5901.89
-5901.62
-5901.05
-5899.89
-5897.58
-5893.04
-5884.29
-5867.74
-5837.14
-5781.89
-5684.83
-5519.37
-5247.06
-4817.21
-4172.29
-3264.26
-2085.4
-706.594
-3718.69
-3718.64
-3718.52
-3718.26
-3717.73
-3716.68
-3714.61
-3710.61
-3703.05
-3689.09
-3663.92
-3619.77
-3544.63
-3420.99
-3225.26
-2928.97
-2503.62
-1930.81
-1217.23
-408.857
-2276.71
-2276.67
-2276.56
-2276.35
-2275.91
-2275.04
-2273.36
-2270.17
-2264.25
-2253.52
-2234.58
-2202.16
-2148.43
-2062.55
-1930.8
-1737.91
-1470.35
-1121.94
-700.765
-234.056
-1354.09
-1354.06
-1353.98
-1353.81
-1353.47
-1352.82
-1351.56
-1349.21
-1344.91
-1337.25
-1323.99
-1301.75
-1265.71
-1209.49
-1125.45
-1005.68
-844.008
-638.866
-396.367
-131.873
-782.27
-782.247
-782.188
-782.067
-781.828
-781.364
-780.487
-778.864
-775.938
-770.802
-762.058
-747.652
-724.755
-689.769
-638.587
-567.241
-473.006
-355.834
-219.667
-72.8798
-438.968
-438.952
-438.913
-438.831
-438.67
-438.361
-437.783
-436.726
-434.842
-431.582
-426.112
-417.24
-403.373
-382.554
-352.646
-311.71
-258.588
-193.593
-119.056
-39.4168
-239.284
-239.274
-239.248
-239.195
-239.093
-238.898
-238.536
-237.882
-236.73
-234.759
-231.495
-226.273
-218.23
-206.336
-189.509
-166.827
-137.816
-102.78
-63.0196
-20.8309
-126.727
-126.721
-126.705
-126.673
-126.611
-126.493
-126.278
-125.892
-125.218
-124.078
-122.213
-119.265
-114.782
-108.238
-99.1005
-86.9407
-71.5748
-53.2128
-32.5501
-10.7457
-65.2226
-65.2188
-65.2096
-65.1909
-65.1548
-65.0874
-64.9645
-64.746
-64.3686
-63.7365
-62.7122
-61.1112
-58.7032
-55.2281
-50.4304
-44.1147
-36.2138
-26.8548
-16.3955
-5.40716
-32.6303
-32.6282
-32.623
-32.6125
-32.5925
-32.5553
-32.488
-32.3693
-32.1661
-31.8287
-31.2871
-30.4487
-29.2
-27.4156
-24.9761
-21.7945
-17.848
-13.2075
-8.05079
-2.65293
-15.8736
-15.8725
-15.8697
-15.8641
-15.8534
-15.8337
-15.7982
-15.7362
-15.6308
-15.4571
-15.1808
-14.7566
-14.1303
-13.2432
-12.0405
-10.4845
-8.56854
-6.32942
-3.85314
-1.26885
-7.51136
-7.51076
-7.50931
-7.5064
-7.50091
-7.49083
-7.47283
-7.44155
-7.38876
-7.30246
-7.16614
-6.9585
-6.65431
-6.22671
-5.65132
-4.91204
-4.00737
-2.95572
-1.79736
-0.591542
-3.45869
-3.45839
-3.45766
-3.45621
-3.45349
-3.44852
-3.43969
-3.42445
-3.3989
-3.3574
-3.2923
-3.19383
-3.05057
-2.85056
-2.58316
-2.24168
-1.82607
-1.34512
-0.817195
-0.268826
-1.55035
-1.5502
-1.54985
-1.54915
-1.54785
-1.54548
-1.54129
-1.53411
-1.52213
-1.5028
-1.47267
-1.42738
-1.36189
-1.27101
-1.15022
-0.996777
-0.810909
-0.596668
-0.362201
-0.119103
-0.676787
-0.676719
-0.676555
-0.67623
-0.675624
-0.67453
-0.672609
-0.669327
-0.663886
-0.655156
-0.641621
-0.621393
-0.59231
-0.552169
-0.499089
-0.43198
-0.351026
-0.258036
-0.156529
-0.0514541
-0.28785
-0.287819
-0.287745
-0.287598
-0.287326
-0.286836
-0.285981
-0.284527
-0.282129
-0.2783
-0.272395
-0.263616
-0.251058
-0.233809
-0.211105
-0.182521
-0.148166
-0.108823
-0.0659742
-0.0216806
-0.119333
-0.119319
-0.119287
-0.119222
-0.119104
-0.118891
-0.118521
-0.117896
-0.116869
-0.115238
-0.112733
-0.109027
-0.103751
-0.0965353
-0.0870768
-0.0752136
-0.0610019
-0.0447703
-0.0271276
-0.00891252
-0.048242
-0.0482362
-0.0482222
-0.048195
-0.0481447
-0.0480551
-0.0478998
-0.0476383
-0.0472108
-0.0465346
-0.0455012
-0.0439786
-0.0418197
-0.0388794
-0.0350394
-0.0302394
-0.024506
-0.0179734
-0.0108855
-0.00357555
-0.0190263
-0.0190238
-0.0190181
-0.0190068
-0.0189861
-0.0189494
-0.018886
-0.0187796
-0.0186064
-0.0183336
-0.0179184
-0.0173091
-0.0164484
-0.0152805
-0.0137604
-0.0118661
-0.0096094
-0.00704364
-0.00426417
-0.00140038
-0.0073238
-0.00732282
-0.0073205
-0.00731598
-0.0073077
-0.00729304
-0.00726784
-0.00722571
-0.00715741
-0.00705021
-0.00688766
-0.00664998
-0.00631546
-0.00586302
-0.00527599
-0.00454644
-0.00367941
-0.00269555
-0.00163126
-0.000535627
-0.00275275
-0.00275236
-0.00275145
-0.00274968
-0.00274646
-0.00274076
-0.00273101
-0.00271475
-0.0026885
-0.00264743
-0.00258539
-0.00249497
-0.00236812
-0.00219709
-0.00197581
-0.0017015
-0.00137621
-0.00100773
-0.000609645
-0.000200148
-0.00101073
-0.00101058
-0.00101023
-0.00100956
-0.00100833
-0.00100618
-0.00100249
-0.000996381
-0.000986539
-0.000971196
-0.000948088
-0.000914521
-0.000867573
-0.000804451
-0.000722993
-0.000622251
-0.000503022
-0.000368179
-0.000222669
-7.30934e-05
-0.000362683
-0.000362626
-0.000362496
-0.000362246
-0.000361793
-0.000360998
-0.000359641
-0.000357398
-0.000353799
-0.000348204
-0.000339802
-0.000327636
-0.000310666
-0.000287908
-0.000258612
-0.000222456
-0.000179743
-0.000131508
-7.95132e-05
-2.60971e-05
-0.00012724
-0.00012722
-0.000127174
-0.000127084
-0.000126921
-0.000126633
-0.000126145
-0.000125342
-0.000124057
-0.000122064
-0.000119081
-0.000114772
-0.000108779
-0.000100761
-9.04618e-05
-7.77766e-05
-6.28144e-05
-4.59414e-05
-2.77695e-05
-9.11306e-06
-4.36645e-05
-4.36574e-05
-4.3641e-05
-4.36092e-05
-4.35505e-05
-4.34497e-05
-4.32797e-05
-4.29979e-05
-4.25477e-05
-4.18558e-05
-4.08216e-05
-3.93296e-05
-3.72605e-05
-3.44993e-05
-3.09582e-05
-2.6605e-05
-2.14769e-05
-1.57021e-05
-9.48931e-06
-3.11505e-06
-1.46616e-05
-1.46608e-05
-1.46542e-05
-1.46432e-05
-1.46227e-05
-1.45886e-05
-1.45286e-05
-1.44314e-05
-1.42781e-05
-1.40447e-05
-1.36935e-05
-1.31897e-05
-1.24905e-05
-1.15591e-05
-1.03682e-05
-8.90604e-06
-7.18674e-06
-5.25262e-06
-3.17451e-06
-1.04168e-06
-4.81962e-06
-4.81894e-06
-4.81725e-06
-4.81284e-06
-4.8064e-06
-4.79421e-06
-4.77456e-06
-4.74305e-06
-4.69273e-06
-4.61277e-06
-4.49588e-06
-4.32834e-06
-4.09795e-06
-3.79064e-06
-3.39863e-06
-2.9182e-06
-2.35509e-06
-1.72117e-06
-1.03965e-06
-3.40168e-07
-1.55143e-06
-1.5521e-06
-1.55126e-06
-1.5499e-06
-1.54736e-06
-1.54296e-06
-1.53855e-06
-1.52805e-06
-1.51178e-06
-1.48502e-06
-1.44572e-06
-1.39235e-06
-1.31731e-06
-1.21753e-06
-1.09166e-06
-9.37496e-07
-7.56231e-07
-5.52774e-07
-3.33731e-07
-1.0859e-07
-4.89416e-07
-4.90771e-07
-4.91449e-07
-4.89924e-07
-4.89077e-07
-4.87722e-07
-4.85858e-07
-4.83148e-07
-4.77218e-07
-4.6824e-07
-4.57059e-07
-4.39949e-07
-4.16571e-07
-3.84892e-07
-3.45928e-07
-2.96292e-07
-2.39033e-07
-1.75675e-07
-1.0571e-07
-3.64224e-08
-1.51788e-07
-1.53482e-07
-1.53652e-07
-1.52974e-07
-1.52974e-07
-1.51449e-07
-1.50772e-07
-1.51449e-07
-1.48061e-07
-1.43487e-07
-1.40946e-07
-1.37389e-07
-1.29935e-07
-1.20787e-07
-1.0859e-07
-9.35124e-08
-7.58942e-08
-5.709e-08
-3.43895e-08
-1.27055e-08
-4.60786e-08
-4.74338e-08
-4.76033e-08
-4.82809e-08
-4.67562e-08
-4.57398e-08
-4.45539e-08
-4.43845e-08
-4.35375e-08
-4.37069e-08
-4.30293e-08
-4.23516e-08
-4.01494e-08
-3.65918e-08
-3.26955e-08
-2.93073e-08
-2.43945e-08
-1.79571e-08
-1.21973e-08
-2.87991e-09
-1.38913e-08
-9.99499e-09
-1.06726e-08
-1.11808e-08
-1.0842e-08
-1.11808e-08
-1.21973e-08
-1.15196e-08
-1.35525e-08
-1.38913e-08
-1.38913e-08
-1.10114e-08
-1.01644e-08
-1.05032e-08
-8.47033e-09
-7.45389e-09
-5.75982e-09
-4.06576e-09
-2.5411e-09
-3.38813e-10
-2.03288e-09
8.47033e-10
1.01644e-09
1.52466e-09
-1.18585e-09
-1.01644e-09
-2.37169e-09
-3.72694e-09
-5.75982e-09
-5.42101e-09
-3.72694e-09
-3.21873e-09
-2.20229e-09
-2.5411e-09
-1.35525e-09
-1.18585e-09
-1.35525e-09
-5.0822e-10
-5.0822e-10
-1.69407e-10
-3.38813e-10
-8.47033e-10
-5.0822e-10
-8.47033e-10
3.38813e-10
-1.18585e-09
-1.69407e-10
5.0822e-10
3.38813e-10
-6.77626e-10
-1.01644e-09
-1.69407e-10
-8.47033e-10
1.69407e-10
-3.38813e-10
-8.47033e-10
1.69407e-10
5.0822e-10
0
-6.77626e-10
1.69407e-09
0
-1.35525e-09
-8.47033e-10
1.35525e-09
-1.35525e-09
-6.77626e-10
3.38813e-10
2.20229e-09
2.5411e-09
0
-3.38813e-10
5.0822e-10
0
-3.38813e-10
-1.69407e-10
8.47033e-10
-8.47033e-10
5.0822e-10
0
3.21873e-09
1.18585e-09
1.69407e-10
8.47033e-10
-8.47033e-10
-6.77626e-10
-5.0822e-10
-2.03288e-09
6.77626e-10
0
-3.38813e-10
-8.47033e-10
-8.47033e-10
-1.18585e-09
-1.69407e-09
-8.47033e-10
-1.35525e-09
-1.69407e-09
-1.18585e-09
-5.0822e-10
1.35525e-09
3.38813e-10
1.18585e-09
-3.38813e-10
-8.47033e-10
3.38813e-10
3.38813e-10
-3.38813e-10
-1.18585e-09
-1.69407e-09
-5.0822e-10
0
-2.5411e-09
-5.0822e-10
-1.35525e-09
-1.52466e-09
-1.18585e-09
-1.69407e-10
-8.47033e-10
0
6.77626e-10
1.69407e-10
5.0822e-10
-3.38813e-10
0
5.0822e-10
-3.38813e-10
6.77626e-10
-1.18585e-09
-1.69407e-10
0
3.38813e-10
-1.18585e-09
3.38813e-10
0
-5.0822e-10
-5.0822e-10
5.0822e-10
-1.69407e-10
8.47033e-10
)
;

boundaryField
{
    topWall
    {
        type            calculated;
        value           uniform 0;
    }
    bottomWall
    {
        type            calculated;
        value           nonuniform List<scalar> 
20
(
-80609.8
-80609.9
-80610.2
-80610.9
-80612.3
-80615.2
-80621.1
-80632.9
-80656.2
-80702.1
-80791.4
-80964.2
-81298.1
-81946.6
-83227.4
-85844.9
-91535.3
-105218
-143144
-266964
)
;
    }
    sideWallL
    {
        type            symmetry;
    }
    sideWallR
    {
        type            calculated;
        value           nonuniform List<scalar> 
45
(
-169076
-47571.7
-17009.6
-7521.11
-3842.47
-2124.75
-1218.22
-706.594
-408.857
-234.056
-131.873
-72.8798
-39.4168
-20.8309
-10.7457
-5.40716
-2.65293
-1.26885
-0.591542
-0.268826
-0.119103
-0.0514541
-0.0216806
-0.00891252
-0.00357555
-0.00140038
-0.000535627
-0.000200148
-7.30934e-05
-2.60971e-05
-9.11306e-06
-3.11505e-06
-1.04168e-06
-3.40168e-07
-1.0859e-07
-3.64224e-08
-1.27055e-08
-2.87991e-09
-3.38813e-10
-1.69407e-10
-6.77626e-10
0
-5.0822e-10
0
8.47033e-10
)
;
    }
    frontAndBack
    {
        type            empty;
    }
}


// ************************************************************************* //
