/*--------------------------------*- C++ -*----------------------------------*\
  =========                 |
  \\      /  F ield         | OpenFOAM: The Open Source CFD Toolbox
   \\    /   O peration     | Website:  https://openfoam.org
    \\  /    A nd           | Version:  7
     \\/     M anipulation  |
\*---------------------------------------------------------------------------*/
FoamFile
{
    version     2.0;
    format      ascii;
    class       volScalarField;
    location    "5";
    object      gradTx;
}
// * * * * * * * * * * * * * * * * * * * * * * * * * * * * * * * * * * * * * //

dimensions      [0 -1 0 1 0 0 0];

internalField   nonuniform List<scalar> 
900
(
-0.0305388
-0.108753
-0.247522
-0.522003
-1.07628
-2.19132
-4.4121
-8.78615
-17.3128
-33.7994
-65.5311
-126.668
-245.599
-482.329
-974.554
-2076.98
-4843.21
-12902.2
-40436.6
-147473
-0.0861798
-0.306673
-0.697071
-1.46745
-3.01904
-6.13067
-12.3045
-24.4073
-47.8577
-92.8378
-178.463
-340.836
-649.148
-1239.25
-2386.88
-4672.74
-9354.1
-19116.6
-38891.7
-71358.8
-0.128648
-0.457185
-1.03666
-2.17522
-4.45714
-9.00724
-17.9727
-35.3974
-68.7966
-131.973
-250.049
-468.473
-869.187
-1599.59
-2923.21
-5301.53
-9494.4
-16543.7
-27043.3
-37954.8
-0.153276
-0.543701
-1.22872
-2.56662
-5.2302
-10.4999
-20.7865
-40.5522
-77.9076
-147.328
-274.178
-502.085
-904.49
-1601.65
-2782.1
-4718.83
-7743.08
-12072.2
-17283.2
-21306.1
-0.159423
-0.564238
-1.26997
-2.63841
-5.34096
-10.6383
-20.8654
-40.259
-76.3283
-142.054
-259.265
-463.543
-810.67
-1383.58
-2295.71
-3679.9
-5638.83
-8118.06
-10676.1
-12275.5
-0.150009
-0.529582
-1.18654
-2.45011
-4.92331
-9.7216
-18.875
-35.9884
-67.2838
-123.166
-220.41
-384.915
-654.482
-1080.06
-1721.88
-2633.72
-3825.5
-5196.89
-6459.31
-7131.54
-0.130085
-0.457999
-1.02115
-2.09493
-4.17678
-8.1726
-15.7011
-29.5744
-54.5175
-98.1738
-172.365
-294.392
-487.782
-781.219
-1203.46
-1771.13
-2466.89
-3210.38
-3838.29
-4131.48
-0.105149
-0.369165
-0.818928
-1.66883
-3.30064
-6.39871
-12.1636
-22.6357
-41.1547
-72.9508
-125.794
-210.482
-340.708
-531.517
-795.242
-1133.85
-1527.86
-1925.14
-2239.09
-2369.78
-0.0798418
-0.279515
-0.616884
-1.24863
-2.44983
-4.70581
-8.85284
-16.2824
-29.2146
-51.0207
-86.5196
-142.083
-225.256
-343.457
-501.304
-696.354
-913.944
-1123.5
-1280.62
-1339.48
-0.0572788
-0.199956
-0.439058
-0.882776
-1.71839
-3.27134
-6.09265
-11.0807
-19.6347
-33.8181
-56.4747
-91.1903
-141.931
-212.152
-303.218
-412.21
-529.693
-638.752
-717.136
-743.687
-0.0389983
-0.135761
-0.296618
-0.592505
-1.14456
-2.16016
-3.98469
-7.17047
-12.5584
-21.3548
-35.1665
-55.9294
-85.6447
-125.832
-176.663
-235.899
-297.975
-353.912
-392.737
-404.659
-0.0252912
-0.0878056
-0.190917
-0.378966
-0.726685
-1.36023
-2.4864
-4.42996
-7.67496
-12.8982
-20.9727
-32.9058
-49.6706
-71.8947
-99.413
-130.77
-162.876
-191.111
-210.143
-215.447
-0.0156705
-0.054263
-0.117437
-0.231704
-0.441191
-0.819398
-1.48503
-2.62138
-4.49625
-7.4753
-12.0162
-18.626
-27.7617
-39.664
-54.1355
-70.3174
-86.5681
-100.574
-109.783
-112.112
-0.00930066
-0.0321254
-0.0692176
-0.135781
-0.256823
-0.473472
-0.851235
-1.48968
-2.53162
-4.1678
-6.63041
-10.1667
-14.9847
-21.1676
-28.5684
-36.7125
-44.7594
-51.5788
-55.9673
-56.9744
-0.00529946
-0.0182613
-0.0391795
-0.0764366
-0.143666
-0.263025
-0.469348
-0.814809
-1.37299
-2.24016
-3.53052
-5.36121
-7.82394
-10.943
-14.6264
-18.6247
-22.5216
-25.7771
-27.8335
-28.2613
-0.00290461
-0.00998629
-0.0213395
-0.0414164
-0.0773816
-0.14075
-0.249407
-0.429777
-0.718547
-1.16282
-1.81713
-2.73545
-3.95704
-5.48645
-7.27154
-9.18668
-11.0315
-12.5541
-13.5003
-13.6785
-0.00153404
-0.00526284
-0.0112033
-0.0216373
-0.0402005
-0.0726756
-0.127943
-0.218959
-0.363452
-0.583793
-0.905296
-1.35219
-1.94077
-2.67023
-3.513
-4.40808
-5.26169
-5.95887
-6.38588
-6.45862
-0.000781899
-0.00267702
-0.0056782
-0.0109159
-0.0201741
-0.0362631
-0.0634532
-0.107903
-0.177926
-0.283845
-0.4371
-0.648284
-0.923971
-1.2626
-1.65036
-2.05858
-2.44453
-2.7569
-2.94578
-2.97482
-0.000385156
-0.00131614
-0.00278216
-0.00532516
-0.00979297
-0.0175088
-0.0304639
-0.051499
-0.0844018
-0.133806
-0.204746
-0.301741
-0.427363
-0.580447
-0.754371
-0.936072
-1.10657
-1.24347
-1.3253
-1.33664
-0.000183587
-0.000626212
-0.00131948
-0.00251516
-0.00460383
-0.00818992
-0.0141748
-0.0238313
-0.0388376
-0.0612182
-0.0931331
-0.136463
-0.192185
-0.259611
-0.335686
-0.414628
-0.488214
-0.546889
-0.581602
-0.585924
-8.47766e-05
-0.000288674
-0.000606415
-0.00115145
-0.00209841
-0.00371541
-0.00639884
-0.0107034
-0.0173525
-0.0272079
-0.0411735
-0.0600138
-0.0840877
-0.113035
-0.145495
-0.178978
-0.210007
-0.234597
-0.24901
-0.250618
-3.79652e-05
-0.000129067
-0.000270355
-0.000511467
-0.000928258
-0.00163631
-0.00280517
-0.00467004
-0.00753468
-0.0117566
-0.017705
-0.0256832
-0.0358191
-0.047938
-0.0614528
-0.0753199
-0.0881047
-0.0981807
-0.104037
-0.10462
-1.65053e-05
-5.60243e-05
-0.000117036
-0.000220646
-0.000398893
-0.000700247
-0.00119529
-0.00198114
-0.00318209
-0.00494284
-0.00741051
-0.0107028
-0.0148638
-0.0198134
-0.025306
-0.0309151
-0.0360627
-0.0400997
-0.0424282
-0.0426343
-6.97244e-06
-2.36307e-05
-4.92389e-05
-9.25268e-05
-0.000166659
-0.000291427
-0.000495444
-0.000817793
-0.00130807
-0.00202342
-0.00302112
-0.00434584
-0.00601211
-0.00798506
-0.0101647
-0.0123812
-0.0144068
-0.0159885
-0.0168944
-0.0169653
-2.86348e-06
-9.69328e-06
-2.01496e-05
-3.77467e-05
-6.77545e-05
-0.000118044
-0.000199921
-0.000328722
-0.000523756
-0.000807055
-0.00120041
-0.00172039
-0.00237161
-0.00313944
-0.00398432
-0.00484016
-0.00561943
-0.00622547
-0.00657038
-0.0065941
-1.1457e-06
-3.86975e-06
-8.02581e-06
-1.49927e-05
-2.68228e-05
-4.65709e-05
-7.85909e-05
-0.000128756
-0.000204404
-0.000313834
-0.000465151
-0.000664363
-0.000912862
-0.00120474
-0.00152473
-0.00184775
-0.00214088
-0.00236802
-0.00249654
-0.00250425
-4.45709e-07
-1.50484e-06
-3.11335e-06
-5.80116e-06
-1.03485e-05
-1.79075e-05
-3.01176e-05
-4.91725e-05
-7.78001e-05
-0.000119053
-0.000175875
-0.000250404
-0.000343031
-0.000451446
-0.000569906
-0.00068911
-0.000796953
-0.000880246
-0.000927118
-0.000929546
-1.69407e-07
-5.70223e-07
-1.17687e-06
-2.18856e-06
-3.89195e-06
-6.71663e-06
-1.12593e-05
-1.83218e-05
-2.88977e-05
-4.40825e-05
-6.49229e-05
-9.21624e-05
-0.000125904
-0.000165268
-0.000208149
-0.000251172
-0.000289987
-0.000319878
-0.000336616
-0.000337354
-6.31887e-08
-2.10234e-07
-4.3385e-07
-8.05698e-07
-1.42759e-06
-2.45843e-06
-4.10896e-06
-6.66412e-06
-1.04798e-05
-1.59407e-05
-2.34096e-05
-3.31402e-05
-4.51565e-05
-5.91336e-05
-7.43163e-05
-8.95107e-05
-0.000103181
-0.000113679
-0.000119534
-0.000119752
-2.13452e-08
-7.33531e-08
-1.54838e-07
-2.89008e-07
-5.12455e-07
-8.79728e-07
-1.46401e-06
-2.36746e-06
-3.71305e-06
-5.63057e-06
-8.24824e-06
-1.16476e-05
-1.58334e-05
-2.06884e-05
-2.59489e-05
-3.12006e-05
-3.5914e-05
-3.95249e-05
-4.15307e-05
-4.15929e-05
-6.43745e-09
-2.35475e-08
-5.35325e-08
-1.0283e-07
-1.80249e-07
-3.06118e-07
-5.0822e-07
-8.22469e-07
-1.28664e-06
-1.94343e-06
-2.84078e-06
-4.00325e-06
-5.42846e-06
-7.08018e-06
-8.86471e-06
-1.06425e-05
-1.22337e-05
-1.3449e-05
-1.41226e-05
-1.41417e-05
-1.01644e-09
-6.94567e-09
-1.77877e-08
-3.60836e-08
-6.20028e-08
-1.04016e-07
-1.73134e-07
-2.79013e-07
-4.34697e-07
-6.55265e-07
-9.5647e-07
-1.34492e-06
-1.82265e-06
-2.37152e-06
-2.96377e-06
-3.55364e-06
-4.0788e-06
-4.47979e-06
-4.70239e-06
-4.71035e-06
1.69407e-10
-1.69407e-10
-4.91279e-09
-1.25361e-08
-2.06676e-08
-3.50672e-08
-5.67512e-08
-9.06325e-08
-1.44165e-07
-2.17349e-07
-3.15266e-07
-4.41982e-07
-5.98175e-07
-7.77746e-07
-9.70192e-07
-1.16145e-06
-1.33069e-06
-1.46198e-06
-1.53499e-06
-1.53736e-06
-1.69407e-10
8.47033e-10
-1.18585e-09
-4.57398e-09
-6.77626e-09
-9.65618e-09
-1.64324e-08
-2.87991e-08
-4.77727e-08
-7.06425e-08
-1.01475e-07
-1.42132e-07
-1.91599e-07
-2.49197e-07
-3.10692e-07
-3.72356e-07
-4.25549e-07
-4.67223e-07
-4.91618e-07
-4.9399e-07
1.18585e-09
2.20229e-09
8.47033e-10
-1.35525e-09
-2.37169e-09
-3.38813e-09
-5.42101e-09
-8.80914e-09
-1.38913e-08
-2.0837e-08
-2.9985e-08
-4.40457e-08
-6.0817e-08
-7.84353e-08
-9.80864e-08
-1.17738e-07
-1.33492e-07
-1.46706e-07
-1.53991e-07
-1.57548e-07
-8.47033e-10
8.47033e-10
1.01644e-09
-5.0822e-10
3.38813e-10
-1.18585e-09
-1.35525e-09
-2.03288e-09
-4.57398e-09
-5.0822e-09
-8.47033e-09
-1.37219e-08
-1.71101e-08
-2.35475e-08
-3.03238e-08
-3.67612e-08
-4.0827e-08
-4.48927e-08
-4.76033e-08
-5.1669e-08
-3.38813e-10
5.0822e-10
2.37169e-09
8.47033e-10
-3.38813e-10
-3.38813e-10
-8.47033e-10
3.38813e-10
8.47033e-10
-3.38813e-10
-2.20229e-09
-3.72694e-09
-5.42101e-09
-7.6233e-09
-9.65618e-09
-1.11808e-08
-1.27055e-08
-1.28749e-08
-1.47384e-08
-1.59242e-08
-2.20229e-09
-1.18585e-09
1.18585e-09
1.69407e-10
1.52466e-09
1.35525e-09
-1.18585e-09
1.18585e-09
3.04932e-09
1.52466e-09
-2.37169e-09
-2.5411e-09
-5.0822e-10
-2.03288e-09
-3.38813e-09
-3.72694e-09
-4.57398e-09
-3.89635e-09
-2.87991e-09
-4.23516e-09
-1.86347e-09
-8.47033e-10
1.35525e-09
1.35525e-09
2.37169e-09
2.03288e-09
5.0822e-10
1.18585e-09
1.35525e-09
3.38813e-10
-6.77626e-10
-5.0822e-10
0
-5.0822e-10
-2.03288e-09
-2.87991e-09
-1.35525e-09
-3.38813e-10
3.38813e-10
-1.18585e-09
1.35525e-09
2.03288e-09
1.69407e-10
6.77626e-10
1.35525e-09
0
-2.03288e-09
-5.0822e-10
1.18585e-09
1.35525e-09
0
8.47033e-10
6.77626e-10
-6.77626e-10
0
-8.47033e-10
-1.35525e-09
-8.47033e-10
8.47033e-10
-1.18585e-09
1.18585e-09
2.37169e-09
1.69407e-09
-8.47033e-10
0
8.47033e-10
-2.03288e-09
-2.37169e-09
-1.69407e-10
2.20229e-09
2.03288e-09
5.0822e-10
6.77626e-10
1.69407e-10
-5.0822e-10
-2.87991e-09
-8.47033e-10
8.47033e-10
3.38813e-10
-3.38813e-10
8.47033e-10
1.52466e-09
1.69407e-10
1.18585e-09
1.18585e-09
-3.38813e-10
-1.69407e-10
-6.77626e-10
0
3.38813e-10
5.0822e-10
1.18585e-09
8.47033e-10
3.38813e-10
-1.52466e-09
-1.69407e-10
-3.38813e-10
-8.47033e-10
-3.38813e-10
-5.0822e-10
-5.0822e-10
-8.47033e-10
5.0822e-10
2.37169e-09
-6.77626e-10
-1.35525e-09
-3.38813e-10
8.47033e-10
2.37169e-09
-5.0822e-10
-1.18585e-09
1.35525e-09
1.18585e-09
-3.38813e-10
-1.01644e-09
-1.52466e-09
-1.35525e-09
0
1.01644e-09
-5.0822e-10
-1.18585e-09
-1.18585e-09
6.77626e-10
1.69407e-10
-5.0822e-10
0
-1.18585e-09
5.0822e-10
1.86347e-09
-6.77626e-10
-5.0822e-10
5.0822e-10
6.77626e-10
-6.77626e-10
-1.18585e-09
-1.69407e-10
-8.47033e-10
-3.38813e-10
1.18585e-09
5.0822e-10
-1.69407e-09
-1.18585e-09
0
-3.38813e-10
3.38813e-10
-3.38813e-10
-1.35525e-09
0
8.47033e-10
1.69407e-10
6.77626e-10
-8.47033e-10
5.0822e-10
6.77626e-10
-2.03288e-09
-8.47033e-10
0
1.69407e-10
1.18585e-09
3.38813e-10
)
;

boundaryField
{
    topWall
    {
        type            calculated;
        value           nonuniform List<scalar> 
20
(
-1.69407e-09
-1.18585e-09
0
-3.38813e-10
3.38813e-10
-3.38813e-10
-1.35525e-09
0
8.47033e-10
1.69407e-10
6.77626e-10
-8.47033e-10
5.0822e-10
6.77626e-10
-2.03288e-09
-8.47033e-10
0
1.69407e-10
1.18585e-09
3.38813e-10
)
;
    }
    bottomWall
    {
        type            calculated;
        value           nonuniform List<scalar> 
20
(
-0.0305388
-0.108753
-0.247522
-0.522003
-1.07628
-2.19132
-4.4121
-8.78615
-17.3128
-33.7994
-65.5311
-126.668
-245.599
-482.329
-974.554
-2076.98
-4843.21
-12902.2
-40436.6
-147473
)
;
    }
    sideWallL
    {
        type            symmetry;
    }
    sideWallR
    {
        type            calculated;
        value           nonuniform List<scalar> 
45
(
-233036
-90658.4
-42748.9
-22619.9
-12664.5
-7249.99
-4165.47
-2377.13
-1339.09
-741.701
-402.87
-214.208
-111.351
-56.5407
-28.0273
-13.5578
-6.39868
-2.94608
-1.32329
-0.579912
-0.247987
-0.103501
-0.0421706
-0.0167782
-0.00652048
-0.00247599
-0.000918963
-0.000333482
-0.000118368
-4.11097e-05
-1.39795e-05
-4.65718e-06
-1.51999e-06
-4.89422e-07
-1.59162e-07
-5.51381e-08
-1.42109e-08
-4.54747e-09
-2.84217e-09
-2.84217e-09
-1.7053e-09
-1.13687e-09
-1.13687e-09
1.13687e-09
-1.7053e-09
)
;
    }
    frontAndBack
    {
        type            empty;
    }
}


// ************************************************************************* //
