/*--------------------------------*- C++ -*----------------------------------*\
  =========                 |
  \\      /  F ield         | OpenFOAM: The Open Source CFD Toolbox
   \\    /   O peration     | Website:  https://openfoam.org
    \\  /    A nd           | Version:  7
     \\/     M anipulation  |
\*---------------------------------------------------------------------------*/
FoamFile
{
    version     2.0;
    format      ascii;
    class       volScalarField;
    location    "5";
    object      rhoc;
}
// * * * * * * * * * * * * * * * * * * * * * * * * * * * * * * * * * * * * * //

dimensions      [1 -3 0 0 0 0 0];

internalField   nonuniform List<scalar> 
900
(
3.26223e-26
3.26222e-26
3.26221e-26
3.26217e-26
3.2621e-26
3.26194e-26
3.2616e-26
3.2609e-26
3.25944e-26
3.25646e-26
3.25041e-26
3.23828e-26
3.21404e-26
3.16567e-26
3.06889e-26
2.87385e-26
2.48007e-26
1.72226e-26
6.10311e-27
1.92183e-28
8.02596e-28
8.02592e-28
8.02581e-28
8.02558e-28
8.02507e-28
8.02399e-28
8.02169e-28
8.01689e-28
8.00699e-28
7.98679e-28
7.94615e-28
7.86543e-28
7.70739e-28
7.40355e-28
6.8355e-28
5.82658e-28
4.21402e-28
2.15969e-28
5.41729e-29
3.86844e-30
5.03565e-29
5.03561e-29
5.03553e-29
5.03533e-29
5.0349e-29
5.03398e-29
5.03204e-29
5.028e-29
5.0197e-29
5.00288e-29
4.96936e-29
4.90375e-29
4.77814e-29
4.54486e-29
4.13119e-29
3.45204e-29
2.47682e-29
1.36728e-29
5.07351e-30
1.24594e-30
7.64066e-30
7.64061e-30
7.64047e-30
7.64018e-30
7.63953e-30
7.63817e-30
7.6353e-30
7.62934e-30
7.61718e-30
7.59275e-30
7.5446e-30
7.45177e-30
7.27758e-30
6.9624e-30
6.42113e-30
5.56215e-30
4.355e-30
2.94256e-30
1.66547e-30
8.25355e-31
2.40489e-30
2.40488e-30
2.40485e-30
2.40477e-30
2.40461e-30
2.40426e-30
2.40355e-30
2.40206e-30
2.39906e-30
2.39309e-30
2.38147e-30
2.35939e-30
2.31871e-30
2.24656e-30
2.12502e-30
1.93439e-30
1.66395e-30
1.32939e-30
9.82601e-31
6.90688e-31
1.25047e-30
1.25047e-30
1.25046e-30
1.25043e-30
1.25037e-30
1.25024e-30
1.24997e-30
1.24943e-30
1.24833e-30
1.24618e-30
1.24206e-30
1.23435e-30
1.22038e-30
1.19607e-30
1.15576e-30
1.09309e-30
1.00346e-30
8.88341e-31
7.5887e-31
6.34283e-31
8.75584e-31
8.75582e-31
8.75575e-31
8.75561e-31
8.75532e-31
8.7547e-31
8.75343e-31
8.75087e-31
8.74577e-31
8.7359e-31
8.71723e-31
8.68292e-31
8.62195e-31
8.51775e-31
8.34799e-31
8.08725e-31
7.71503e-31
7.2295e-31
6.66149e-31
6.07647e-31
7.22476e-31
7.22475e-31
7.22471e-31
7.22463e-31
7.22447e-31
7.22413e-31
7.22344e-31
7.22205e-31
7.21934e-31
7.21415e-31
7.20449e-31
7.18705e-31
7.15665e-31
7.1057e-31
7.02426e-31
6.90113e-31
6.72707e-31
6.49993e-31
6.23034e-31
5.94363e-31
6.51533e-31
6.51532e-31
6.5153e-31
6.51526e-31
6.51516e-31
6.51496e-31
6.51456e-31
6.51376e-31
6.51221e-31
6.50931e-31
6.50399e-31
6.49455e-31
6.4784e-31
6.45187e-31
6.41028e-31
6.34853e-31
6.26244e-31
6.151e-31
6.01857e-31
5.8759e-31
6.16487e-31
6.16486e-31
6.16485e-31
6.16482e-31
6.16476e-31
6.16464e-31
6.1644e-31
6.16393e-31
6.16304e-31
6.16138e-31
6.15839e-31
6.15317e-31
6.14441e-31
6.13029e-31
6.10858e-31
6.07691e-31
6.03347e-31
5.97789e-31
5.9122e-31
5.84121e-31
5.98697e-31
5.98696e-31
5.98696e-31
5.98694e-31
5.9869e-31
5.98683e-31
5.98669e-31
5.98642e-31
5.9859e-31
5.98496e-31
5.98328e-31
5.98041e-31
5.97567e-31
5.96817e-31
5.95684e-31
5.94061e-31
5.91869e-31
5.89101e-31
5.85856e-31
5.82355e-31
5.89619e-31
5.89618e-31
5.89618e-31
5.89617e-31
5.89615e-31
5.89611e-31
5.89602e-31
5.89587e-31
5.89558e-31
5.89505e-31
5.89413e-31
5.89258e-31
5.89005e-31
5.88613e-31
5.8803e-31
5.87208e-31
5.86115e-31
5.84752e-31
5.83168e-31
5.81466e-31
5.85022e-31
5.85022e-31
5.85022e-31
5.85021e-31
5.8502e-31
5.85018e-31
5.85013e-31
5.85004e-31
5.84988e-31
5.8496e-31
5.8491e-31
5.84828e-31
5.84697e-31
5.84496e-31
5.84203e-31
5.83794e-31
5.83259e-31
5.82599e-31
5.81839e-31
5.81027e-31
5.82731e-31
5.82731e-31
5.8273e-31
5.8273e-31
5.82729e-31
5.82728e-31
5.82726e-31
5.82721e-31
5.82712e-31
5.82697e-31
5.82672e-31
5.8263e-31
5.82564e-31
5.82463e-31
5.82319e-31
5.82121e-31
5.81864e-31
5.81551e-31
5.81193e-31
5.80813e-31
5.81611e-31
5.81611e-31
5.81611e-31
5.81611e-31
5.8161e-31
5.8161e-31
5.81608e-31
5.81606e-31
5.81601e-31
5.81594e-31
5.81581e-31
5.8156e-31
5.81527e-31
5.81479e-31
5.8141e-31
5.81316e-31
5.81196e-31
5.8105e-31
5.80885e-31
5.80711e-31
5.81076e-31
5.81076e-31
5.81076e-31
5.81076e-31
5.81076e-31
5.81075e-31
5.81075e-31
5.81073e-31
5.81071e-31
5.81067e-31
5.81061e-31
5.81051e-31
5.81035e-31
5.81012e-31
5.8098e-31
5.80937e-31
5.80882e-31
5.80816e-31
5.80742e-31
5.80663e-31
5.80826e-31
5.80826e-31
5.80826e-31
5.80826e-31
5.80826e-31
5.80826e-31
5.80826e-31
5.80825e-31
5.80824e-31
5.80822e-31
5.80819e-31
5.80814e-31
5.80807e-31
5.80797e-31
5.80782e-31
5.80763e-31
5.80738e-31
5.80709e-31
5.80676e-31
5.80642e-31
5.80713e-31
5.80713e-31
5.80713e-31
5.80713e-31
5.80713e-31
5.80712e-31
5.80712e-31
5.80712e-31
5.80711e-31
5.80711e-31
5.80709e-31
5.80707e-31
5.80704e-31
5.80699e-31
5.80693e-31
5.80684e-31
5.80673e-31
5.80661e-31
5.80647e-31
5.80632e-31
5.80662e-31
5.80662e-31
5.80662e-31
5.80662e-31
5.80662e-31
5.80662e-31
5.80662e-31
5.80662e-31
5.80662e-31
5.80661e-31
5.80661e-31
5.8066e-31
5.80658e-31
5.80656e-31
5.80653e-31
5.8065e-31
5.80645e-31
5.8064e-31
5.80634e-31
5.80628e-31
5.8064e-31
5.8064e-31
5.8064e-31
5.8064e-31
5.8064e-31
5.8064e-31
5.8064e-31
5.8064e-31
5.8064e-31
5.8064e-31
5.8064e-31
5.80639e-31
5.80639e-31
5.80638e-31
5.80636e-31
5.80635e-31
5.80633e-31
5.80631e-31
5.80628e-31
5.80626e-31
5.80631e-31
5.80631e-31
5.80631e-31
5.80631e-31
5.80631e-31
5.80631e-31
5.80631e-31
5.80631e-31
5.80631e-31
5.80631e-31
5.80631e-31
5.8063e-31
5.8063e-31
5.8063e-31
5.80629e-31
5.80629e-31
5.80628e-31
5.80627e-31
5.80626e-31
5.80625e-31
5.80627e-31
5.80627e-31
5.80627e-31
5.80627e-31
5.80627e-31
5.80627e-31
5.80627e-31
5.80627e-31
5.80627e-31
5.80627e-31
5.80627e-31
5.80627e-31
5.80627e-31
5.80627e-31
5.80626e-31
5.80626e-31
5.80626e-31
5.80626e-31
5.80625e-31
5.80625e-31
5.80626e-31
5.80626e-31
5.80626e-31
5.80626e-31
5.80626e-31
5.80626e-31
5.80626e-31
5.80626e-31
5.80626e-31
5.80626e-31
5.80625e-31
5.80625e-31
5.80625e-31
5.80625e-31
5.80625e-31
5.80625e-31
5.80625e-31
5.80625e-31
5.80625e-31
5.80625e-31
5.80625e-31
5.80625e-31
5.80625e-31
5.80625e-31
5.80625e-31
5.80625e-31
5.80625e-31
5.80625e-31
5.80625e-31
5.80625e-31
5.80625e-31
5.80625e-31
5.80625e-31
5.80625e-31
5.80625e-31
5.80625e-31
5.80625e-31
5.80625e-31
5.80625e-31
5.80625e-31
5.80625e-31
5.80625e-31
5.80625e-31
5.80625e-31
5.80625e-31
5.80625e-31
5.80625e-31
5.80625e-31
5.80625e-31
5.80625e-31
5.80625e-31
5.80625e-31
5.80625e-31
5.80625e-31
5.80625e-31
5.80625e-31
5.80625e-31
5.80625e-31
5.80625e-31
5.80625e-31
5.80625e-31
5.80625e-31
5.80625e-31
5.80625e-31
5.80625e-31
5.80625e-31
5.80625e-31
5.80625e-31
5.80625e-31
5.80625e-31
5.80625e-31
5.80625e-31
5.80625e-31
5.80625e-31
5.80625e-31
5.80625e-31
5.80625e-31
5.80625e-31
5.80625e-31
5.80625e-31
5.80625e-31
5.80625e-31
5.80625e-31
5.80625e-31
5.80625e-31
5.80625e-31
5.80625e-31
5.80625e-31
5.80625e-31
5.80625e-31
5.80625e-31
5.80625e-31
5.80625e-31
5.80625e-31
5.80625e-31
5.80625e-31
5.80625e-31
5.80625e-31
5.80625e-31
5.80625e-31
5.80625e-31
5.80625e-31
5.80625e-31
5.80625e-31
5.80625e-31
5.80625e-31
5.80625e-31
5.80625e-31
5.80625e-31
5.80625e-31
5.80625e-31
5.80625e-31
5.80625e-31
5.80625e-31
5.80625e-31
5.80625e-31
5.80625e-31
5.80625e-31
5.80625e-31
5.80625e-31
5.80625e-31
5.80625e-31
5.80625e-31
5.80625e-31
5.80625e-31
5.80625e-31
5.80625e-31
5.80625e-31
5.80625e-31
5.80625e-31
5.80625e-31
5.80625e-31
5.80625e-31
5.80625e-31
5.80625e-31
5.80625e-31
5.80625e-31
5.80625e-31
5.80625e-31
5.80625e-31
5.80625e-31
5.80625e-31
5.80625e-31
5.80625e-31
5.80625e-31
5.80625e-31
5.80625e-31
5.80625e-31
5.80625e-31
5.80625e-31
5.80625e-31
5.80625e-31
5.80625e-31
5.80625e-31
5.80625e-31
5.80625e-31
5.80625e-31
5.80625e-31
5.80625e-31
5.80625e-31
5.80625e-31
5.80625e-31
5.80625e-31
5.80625e-31
5.80625e-31
5.80625e-31
5.80625e-31
5.80625e-31
5.80625e-31
5.80625e-31
5.80625e-31
5.80625e-31
5.80625e-31
5.80625e-31
5.80625e-31
5.80625e-31
5.80625e-31
5.80625e-31
5.80625e-31
5.80625e-31
5.80625e-31
5.80625e-31
5.80625e-31
5.80625e-31
5.80625e-31
5.80625e-31
5.80625e-31
5.80625e-31
5.80625e-31
5.80625e-31
5.80625e-31
5.80625e-31
5.80625e-31
5.80625e-31
5.80625e-31
5.80625e-31
5.80625e-31
5.80625e-31
5.80625e-31
5.80625e-31
5.80625e-31
5.80625e-31
5.80625e-31
5.80625e-31
5.80625e-31
5.80625e-31
5.80625e-31
5.80625e-31
5.80625e-31
5.80625e-31
5.80625e-31
5.80625e-31
5.80625e-31
5.80625e-31
5.80625e-31
5.80625e-31
5.80625e-31
5.80625e-31
5.80625e-31
5.80625e-31
5.80625e-31
5.80625e-31
5.80625e-31
5.80625e-31
5.80625e-31
5.80625e-31
5.80625e-31
5.80625e-31
5.80625e-31
5.80625e-31
5.80625e-31
5.80625e-31
5.80625e-31
5.80625e-31
5.80625e-31
5.80625e-31
5.80625e-31
5.80625e-31
5.80625e-31
5.80625e-31
5.80625e-31
5.80625e-31
5.80625e-31
5.80625e-31
5.80625e-31
5.80625e-31
5.80625e-31
5.80625e-31
5.80625e-31
5.80625e-31
5.80625e-31
5.80625e-31
5.80625e-31
5.80625e-31
5.80625e-31
5.80625e-31
5.80625e-31
5.80625e-31
5.80625e-31
5.80625e-31
5.80625e-31
5.80625e-31
5.80625e-31
5.80625e-31
5.80625e-31
5.80625e-31
5.80625e-31
5.80625e-31
5.80625e-31
5.80625e-31
5.80625e-31
5.80625e-31
5.80625e-31
5.80625e-31
5.80625e-31
5.80625e-31
5.80625e-31
5.80625e-31
5.80625e-31
5.80625e-31
5.80625e-31
5.80625e-31
5.80625e-31
5.80625e-31
5.80625e-31
5.80625e-31
5.80625e-31
5.80625e-31
5.80625e-31
5.80625e-31
5.80625e-31
5.80625e-31
5.80625e-31
5.80625e-31
5.80625e-31
5.80625e-31
5.80625e-31
5.80625e-31
5.80625e-31
5.80625e-31
5.80625e-31
5.80625e-31
5.80625e-31
5.80625e-31
5.80625e-31
5.80625e-31
5.80625e-31
5.80625e-31
5.80625e-31
5.80625e-31
5.80625e-31
5.80625e-31
5.80625e-31
5.80625e-31
5.80625e-31
5.80625e-31
5.80625e-31
5.80625e-31
5.80625e-31
5.80625e-31
5.80625e-31
5.80625e-31
5.80625e-31
5.80625e-31
5.80625e-31
5.80625e-31
5.80625e-31
5.80625e-31
5.80625e-31
5.80625e-31
5.80625e-31
5.80625e-31
5.80625e-31
5.80625e-31
5.80625e-31
5.80625e-31
5.80625e-31
5.80625e-31
5.80625e-31
5.80625e-31
5.80625e-31
5.80625e-31
5.80625e-31
5.80625e-31
5.80625e-31
5.80625e-31
5.80625e-31
5.80625e-31
5.80625e-31
5.80625e-31
5.80625e-31
5.80625e-31
5.80625e-31
5.80625e-31
5.80625e-31
5.80625e-31
5.80625e-31
5.80625e-31
5.80625e-31
5.80625e-31
5.80625e-31
5.80625e-31
5.80625e-31
5.80625e-31
5.80625e-31
5.80625e-31
5.80625e-31
5.80625e-31
5.80625e-31
5.80625e-31
5.80625e-31
5.80625e-31
5.80625e-31
5.80625e-31
5.80625e-31
5.80625e-31
5.80625e-31
5.80625e-31
5.80625e-31
5.80625e-31
5.80625e-31
5.80625e-31
5.80625e-31
5.80625e-31
5.80625e-31
5.80625e-31
5.80625e-31
5.80625e-31
5.80625e-31
5.80625e-31
5.80625e-31
5.80625e-31
5.80625e-31
5.80625e-31
5.80625e-31
5.80625e-31
5.80625e-31
5.80625e-31
5.80625e-31
5.80625e-31
5.80625e-31
5.80625e-31
5.80625e-31
5.80625e-31
5.80625e-31
5.80625e-31
5.80625e-31
5.80625e-31
5.80625e-31
5.80625e-31
5.80625e-31
5.80625e-31
5.80625e-31
5.80625e-31
5.80625e-31
5.80625e-31
5.80625e-31
5.80625e-31
5.80625e-31
5.80625e-31
5.80625e-31
5.80625e-31
5.80625e-31
5.80625e-31
5.80625e-31
5.80625e-31
5.80625e-31
5.80625e-31
5.80625e-31
5.80625e-31
5.80625e-31
5.80625e-31
5.80625e-31
5.80625e-31
5.80625e-31
5.80625e-31
5.80625e-31
5.80625e-31
5.80625e-31
5.80625e-31
5.80625e-31
5.80625e-31
5.80625e-31
5.80625e-31
5.80625e-31
5.80625e-31
5.80625e-31
5.80625e-31
5.80625e-31
5.80625e-31
5.80625e-31
5.80625e-31
5.80625e-31
5.80625e-31
5.80625e-31
5.80625e-31
5.80625e-31
5.80625e-31
5.80625e-31
5.80625e-31
)
;

boundaryField
{
    topWall
    {
        type            zeroGradient;
    }
    bottomWall
    {
        type            zeroGradient;
    }
    sideWallL
    {
        type            symmetry;
    }
    sideWallR
    {
        type            zeroGradient;
    }
    frontAndBack
    {
        type            empty;
    }
}


// ************************************************************************* //
