/*--------------------------------*- C++ -*----------------------------------*\
  =========                 |
  \\      /  F ield         | OpenFOAM: The Open Source CFD Toolbox
   \\    /   O peration     | Website:  https://openfoam.org
    \\  /    A nd           | Version:  7
     \\/     M anipulation  |
\*---------------------------------------------------------------------------*/
FoamFile
{
    version     2.0;
    format      ascii;
    class       volScalarField;
    location    "5";
    object      rhog;
}
// * * * * * * * * * * * * * * * * * * * * * * * * * * * * * * * * * * * * * //

dimensions      [1 -3 0 0 0 0 0];

internalField   nonuniform List<scalar> 
900
(
1.177e-13
1.177e-13
1.17699e-13
1.17698e-13
1.17697e-13
1.17693e-13
1.17685e-13
1.17669e-13
1.17635e-13
1.17566e-13
1.17429e-13
1.17153e-13
1.16604e-13
1.1551e-13
1.13314e-13
1.0883e-13
9.94414e-14
7.96077e-14
4.23086e-14
5.07807e-15
1.26894e-14
1.26894e-14
1.26893e-14
1.2689e-14
1.26885e-14
1.26873e-14
1.2685e-14
1.268e-14
1.26698e-14
1.26492e-14
1.26078e-14
1.25259e-14
1.23657e-14
1.2056e-14
1.14673e-14
1.03795e-14
8.48527e-15
5.60236e-15
2.36629e-15
4.46032e-16
2.34487e-15
2.34486e-15
2.34483e-15
2.34476e-15
2.34463e-15
2.34434e-15
2.34373e-15
2.34246e-15
2.33988e-15
2.33468e-15
2.32437e-15
2.30424e-15
2.2657e-15
2.19359e-15
2.06312e-15
1.83918e-15
1.48804e-15
1.0182e-15
5.38708e-16
2.17199e-16
7.21725e-16
7.21722e-16
7.21713e-16
7.21693e-16
7.2165e-16
7.21559e-16
7.21369e-16
7.20978e-16
7.20185e-16
7.18599e-16
7.15491e-16
7.0952e-16
6.98327e-16
6.77976e-16
6.42497e-16
5.84309e-16
4.97303e-16
3.84194e-16
2.64199e-16
1.66938e-16
3.4251e-16
3.42509e-16
3.42506e-16
3.42498e-16
3.42481e-16
3.42446e-16
3.42372e-16
3.42221e-16
3.41917e-16
3.41316e-16
3.40154e-16
3.37955e-16
3.33915e-16
3.26742e-16
3.14572e-16
2.95147e-16
2.66652e-16
2.29419e-16
1.87662e-16
1.48913e-16
2.22267e-16
2.22266e-16
2.22264e-16
2.22261e-16
2.22253e-16
2.22236e-16
2.22202e-16
2.22132e-16
2.21993e-16
2.21721e-16
2.21202e-16
2.20235e-16
2.18492e-16
2.15463e-16
2.10434e-16
2.02563e-16
1.9114e-16
1.76103e-16
1.58581e-16
1.40964e-16
1.75134e-16
1.75134e-16
1.75133e-16
1.75131e-16
1.75127e-16
1.75118e-16
1.751e-16
1.75063e-16
1.74991e-16
1.74851e-16
1.74589e-16
1.74108e-16
1.73258e-16
1.71809e-16
1.69452e-16
1.65827e-16
1.60627e-16
1.53778e-16
1.45646e-16
1.37109e-16
1.53987e-16
1.53987e-16
1.53986e-16
1.53985e-16
1.53983e-16
1.53977e-16
1.53967e-16
1.53946e-16
1.53906e-16
1.53829e-16
1.53686e-16
1.53429e-16
1.52982e-16
1.52236e-16
1.51046e-16
1.4925e-16
1.46708e-16
1.43381e-16
1.39411e-16
1.35156e-16
1.43717e-16
1.43717e-16
1.43717e-16
1.43716e-16
1.43715e-16
1.43712e-16
1.43705e-16
1.43693e-16
1.4367e-16
1.43626e-16
1.43545e-16
1.43403e-16
1.4316e-16
1.42762e-16
1.42139e-16
1.41217e-16
1.39932e-16
1.38268e-16
1.36289e-16
1.3415e-16
1.38521e-16
1.38521e-16
1.38521e-16
1.3852e-16
1.38519e-16
1.38517e-16
1.38514e-16
1.38506e-16
1.38493e-16
1.38467e-16
1.38421e-16
1.38342e-16
1.38209e-16
1.37994e-16
1.37665e-16
1.37187e-16
1.36531e-16
1.35693e-16
1.34702e-16
1.33631e-16
1.35849e-16
1.35849e-16
1.35849e-16
1.35848e-16
1.35848e-16
1.35847e-16
1.35844e-16
1.3584e-16
1.35832e-16
1.35818e-16
1.35792e-16
1.35748e-16
1.35675e-16
1.35561e-16
1.35388e-16
1.35141e-16
1.34808e-16
1.34388e-16
1.33896e-16
1.33365e-16
1.34475e-16
1.34475e-16
1.34475e-16
1.34475e-16
1.34474e-16
1.34474e-16
1.34472e-16
1.3447e-16
1.34466e-16
1.34457e-16
1.34443e-16
1.34419e-16
1.34381e-16
1.3432e-16
1.34231e-16
1.34106e-16
1.33939e-16
1.33731e-16
1.3349e-16
1.33231e-16
1.33776e-16
1.33776e-16
1.33776e-16
1.33776e-16
1.33776e-16
1.33775e-16
1.33775e-16
1.33773e-16
1.33771e-16
1.33766e-16
1.33759e-16
1.33746e-16
1.33726e-16
1.33695e-16
1.3365e-16
1.33587e-16
1.33505e-16
1.33405e-16
1.33288e-16
1.33164e-16
1.33426e-16
1.33426e-16
1.33426e-16
1.33426e-16
1.33426e-16
1.33426e-16
1.33425e-16
1.33425e-16
1.33423e-16
1.33421e-16
1.33417e-16
1.33411e-16
1.334e-16
1.33385e-16
1.33363e-16
1.33332e-16
1.33293e-16
1.33245e-16
1.3319e-16
1.33132e-16
1.33255e-16
1.33255e-16
1.33255e-16
1.33255e-16
1.33255e-16
1.33255e-16
1.33254e-16
1.33254e-16
1.33253e-16
1.33252e-16
1.3325e-16
1.33247e-16
1.33242e-16
1.33234e-16
1.33224e-16
1.33209e-16
1.33191e-16
1.33168e-16
1.33143e-16
1.33116e-16
1.33173e-16
1.33173e-16
1.33173e-16
1.33173e-16
1.33173e-16
1.33172e-16
1.33172e-16
1.33172e-16
1.33172e-16
1.33171e-16
1.3317e-16
1.33169e-16
1.33166e-16
1.33163e-16
1.33158e-16
1.33151e-16
1.33143e-16
1.33132e-16
1.33121e-16
1.33109e-16
1.33134e-16
1.33134e-16
1.33134e-16
1.33134e-16
1.33134e-16
1.33134e-16
1.33134e-16
1.33134e-16
1.33134e-16
1.33134e-16
1.33133e-16
1.33132e-16
1.33131e-16
1.3313e-16
1.33127e-16
1.33124e-16
1.33121e-16
1.33116e-16
1.33111e-16
1.33106e-16
1.33117e-16
1.33117e-16
1.33117e-16
1.33117e-16
1.33117e-16
1.33117e-16
1.33117e-16
1.33117e-16
1.33116e-16
1.33116e-16
1.33116e-16
1.33116e-16
1.33115e-16
1.33115e-16
1.33114e-16
1.33112e-16
1.33111e-16
1.33109e-16
1.33106e-16
1.33104e-16
1.33109e-16
1.33109e-16
1.33109e-16
1.33109e-16
1.33109e-16
1.33109e-16
1.33109e-16
1.33109e-16
1.33109e-16
1.33109e-16
1.33109e-16
1.33108e-16
1.33108e-16
1.33108e-16
1.33107e-16
1.33107e-16
1.33106e-16
1.33105e-16
1.33104e-16
1.33104e-16
1.33105e-16
1.33105e-16
1.33105e-16
1.33105e-16
1.33105e-16
1.33105e-16
1.33105e-16
1.33105e-16
1.33105e-16
1.33105e-16
1.33105e-16
1.33105e-16
1.33105e-16
1.33105e-16
1.33105e-16
1.33105e-16
1.33104e-16
1.33104e-16
1.33104e-16
1.33103e-16
1.33104e-16
1.33104e-16
1.33104e-16
1.33104e-16
1.33104e-16
1.33104e-16
1.33104e-16
1.33104e-16
1.33104e-16
1.33104e-16
1.33104e-16
1.33104e-16
1.33104e-16
1.33104e-16
1.33104e-16
1.33104e-16
1.33104e-16
1.33103e-16
1.33103e-16
1.33103e-16
1.33103e-16
1.33103e-16
1.33103e-16
1.33103e-16
1.33103e-16
1.33103e-16
1.33103e-16
1.33103e-16
1.33103e-16
1.33103e-16
1.33103e-16
1.33103e-16
1.33103e-16
1.33103e-16
1.33103e-16
1.33103e-16
1.33103e-16
1.33103e-16
1.33103e-16
1.33103e-16
1.33103e-16
1.33103e-16
1.33103e-16
1.33103e-16
1.33103e-16
1.33103e-16
1.33103e-16
1.33103e-16
1.33103e-16
1.33103e-16
1.33103e-16
1.33103e-16
1.33103e-16
1.33103e-16
1.33103e-16
1.33103e-16
1.33103e-16
1.33103e-16
1.33103e-16
1.33103e-16
1.33103e-16
1.33103e-16
1.33103e-16
1.33103e-16
1.33103e-16
1.33103e-16
1.33103e-16
1.33103e-16
1.33103e-16
1.33103e-16
1.33103e-16
1.33103e-16
1.33103e-16
1.33103e-16
1.33103e-16
1.33103e-16
1.33103e-16
1.33103e-16
1.33103e-16
1.33103e-16
1.33103e-16
1.33103e-16
1.33103e-16
1.33103e-16
1.33103e-16
1.33103e-16
1.33103e-16
1.33103e-16
1.33103e-16
1.33103e-16
1.33103e-16
1.33103e-16
1.33103e-16
1.33103e-16
1.33103e-16
1.33103e-16
1.33103e-16
1.33103e-16
1.33103e-16
1.33103e-16
1.33103e-16
1.33103e-16
1.33103e-16
1.33103e-16
1.33103e-16
1.33103e-16
1.33103e-16
1.33103e-16
1.33103e-16
1.33103e-16
1.33103e-16
1.33103e-16
1.33103e-16
1.33103e-16
1.33103e-16
1.33103e-16
1.33103e-16
1.33103e-16
1.33103e-16
1.33103e-16
1.33103e-16
1.33103e-16
1.33103e-16
1.33103e-16
1.33103e-16
1.33103e-16
1.33103e-16
1.33103e-16
1.33103e-16
1.33103e-16
1.33103e-16
1.33103e-16
1.33103e-16
1.33103e-16
1.33103e-16
1.33103e-16
1.33103e-16
1.33103e-16
1.33103e-16
1.33103e-16
1.33103e-16
1.33103e-16
1.33103e-16
1.33103e-16
1.33103e-16
1.33103e-16
1.33103e-16
1.33103e-16
1.33103e-16
1.33103e-16
1.33103e-16
1.33103e-16
1.33103e-16
1.33103e-16
1.33103e-16
1.33103e-16
1.33103e-16
1.33103e-16
1.33103e-16
1.33103e-16
1.33103e-16
1.33103e-16
1.33103e-16
1.33103e-16
1.33103e-16
1.33103e-16
1.33103e-16
1.33103e-16
1.33103e-16
1.33103e-16
1.33103e-16
1.33103e-16
1.33103e-16
1.33103e-16
1.33103e-16
1.33103e-16
1.33103e-16
1.33103e-16
1.33103e-16
1.33103e-16
1.33103e-16
1.33103e-16
1.33103e-16
1.33103e-16
1.33103e-16
1.33103e-16
1.33103e-16
1.33103e-16
1.33103e-16
1.33103e-16
1.33103e-16
1.33103e-16
1.33103e-16
1.33103e-16
1.33103e-16
1.33103e-16
1.33103e-16
1.33103e-16
1.33103e-16
1.33103e-16
1.33103e-16
1.33103e-16
1.33103e-16
1.33103e-16
1.33103e-16
1.33103e-16
1.33103e-16
1.33103e-16
1.33103e-16
1.33103e-16
1.33103e-16
1.33103e-16
1.33103e-16
1.33103e-16
1.33103e-16
1.33103e-16
1.33103e-16
1.33103e-16
1.33103e-16
1.33103e-16
1.33103e-16
1.33103e-16
1.33103e-16
1.33103e-16
1.33103e-16
1.33103e-16
1.33103e-16
1.33103e-16
1.33103e-16
1.33103e-16
1.33103e-16
1.33103e-16
1.33103e-16
1.33103e-16
1.33103e-16
1.33103e-16
1.33103e-16
1.33103e-16
1.33103e-16
1.33103e-16
1.33103e-16
1.33103e-16
1.33103e-16
1.33103e-16
1.33103e-16
1.33103e-16
1.33103e-16
1.33103e-16
1.33103e-16
1.33103e-16
1.33103e-16
1.33103e-16
1.33103e-16
1.33103e-16
1.33103e-16
1.33103e-16
1.33103e-16
1.33103e-16
1.33103e-16
1.33103e-16
1.33103e-16
1.33103e-16
1.33103e-16
1.33103e-16
1.33103e-16
1.33103e-16
1.33103e-16
1.33103e-16
1.33103e-16
1.33103e-16
1.33103e-16
1.33103e-16
1.33103e-16
1.33103e-16
1.33103e-16
1.33103e-16
1.33103e-16
1.33103e-16
1.33103e-16
1.33103e-16
1.33103e-16
1.33103e-16
1.33103e-16
1.33103e-16
1.33103e-16
1.33103e-16
1.33103e-16
1.33103e-16
1.33103e-16
1.33103e-16
1.33103e-16
1.33103e-16
1.33103e-16
1.33103e-16
1.33103e-16
1.33103e-16
1.33103e-16
1.33103e-16
1.33103e-16
1.33103e-16
1.33103e-16
1.33103e-16
1.33103e-16
1.33103e-16
1.33103e-16
1.33103e-16
1.33103e-16
1.33103e-16
1.33103e-16
1.33103e-16
1.33103e-16
1.33103e-16
1.33103e-16
1.33103e-16
1.33103e-16
1.33103e-16
1.33103e-16
1.33103e-16
1.33103e-16
1.33103e-16
1.33103e-16
1.33103e-16
1.33103e-16
1.33103e-16
1.33103e-16
1.33103e-16
1.33103e-16
1.33103e-16
1.33103e-16
1.33103e-16
1.33103e-16
1.33103e-16
1.33103e-16
1.33103e-16
1.33103e-16
1.33103e-16
1.33103e-16
1.33103e-16
1.33103e-16
1.33103e-16
1.33103e-16
1.33103e-16
1.33103e-16
1.33103e-16
1.33103e-16
1.33103e-16
1.33103e-16
1.33103e-16
1.33103e-16
1.33103e-16
1.33103e-16
1.33103e-16
1.33103e-16
1.33103e-16
1.33103e-16
1.33103e-16
1.33103e-16
1.33103e-16
1.33103e-16
1.33103e-16
1.33103e-16
1.33103e-16
1.33103e-16
1.33103e-16
1.33103e-16
1.33103e-16
1.33103e-16
1.33103e-16
1.33103e-16
1.33103e-16
1.33103e-16
1.33103e-16
1.33103e-16
1.33103e-16
1.33103e-16
1.33103e-16
1.33103e-16
1.33103e-16
1.33103e-16
1.33103e-16
1.33103e-16
1.33103e-16
1.33103e-16
1.33103e-16
1.33103e-16
1.33103e-16
1.33103e-16
1.33103e-16
1.33103e-16
1.33103e-16
1.33103e-16
1.33103e-16
1.33103e-16
1.33103e-16
1.33103e-16
1.33103e-16
1.33103e-16
1.33103e-16
1.33103e-16
1.33103e-16
1.33103e-16
1.33103e-16
1.33103e-16
1.33103e-16
1.33103e-16
1.33103e-16
1.33103e-16
1.33103e-16
1.33103e-16
1.33103e-16
1.33103e-16
1.33103e-16
1.33103e-16
1.33103e-16
1.33103e-16
1.33103e-16
1.33103e-16
1.33103e-16
1.33103e-16
1.33103e-16
1.33103e-16
1.33103e-16
1.33103e-16
1.33103e-16
1.33103e-16
1.33103e-16
1.33103e-16
1.33103e-16
1.33103e-16
1.33103e-16
1.33103e-16
1.33103e-16
1.33103e-16
1.33103e-16
1.33103e-16
1.33103e-16
1.33103e-16
1.33103e-16
1.33103e-16
1.33103e-16
1.33103e-16
1.33103e-16
1.33103e-16
1.33103e-16
1.33103e-16
1.33103e-16
1.33103e-16
1.33103e-16
1.33103e-16
1.33103e-16
1.33103e-16
1.33103e-16
1.33103e-16
1.33103e-16
1.33103e-16
1.33103e-16
1.33103e-16
1.33103e-16
1.33103e-16
1.33103e-16
1.33103e-16
1.33103e-16
1.33103e-16
1.33103e-16
1.33103e-16
1.33103e-16
1.33103e-16
1.33103e-16
1.33103e-16
1.33103e-16
1.33103e-16
1.33103e-16
1.33103e-16
1.33103e-16
1.33103e-16
1.33103e-16
1.33103e-16
1.33103e-16
1.33103e-16
1.33103e-16
1.33103e-16
1.33103e-16
1.33103e-16
1.33103e-16
1.33103e-16
1.33103e-16
1.33103e-16
1.33103e-16
1.33103e-16
1.33103e-16
1.33103e-16
1.33103e-16
1.33103e-16
1.33103e-16
1.33103e-16
1.33103e-16
1.33103e-16
1.33103e-16
1.33103e-16
1.33103e-16
)
;

boundaryField
{
    topWall
    {
        type            calculated;
        value           uniform 0;
    }
    bottomWall
    {
        type            zeroGradient;
    }
    sideWallL
    {
        type            symmetry;
    }
    sideWallR
    {
        type            calculated;
        value           uniform 0;
    }
    frontAndBack
    {
        type            empty;
    }
}


// ************************************************************************* //
