/*--------------------------------*- C++ -*----------------------------------*\
  =========                 |
  \\      /  F ield         | OpenFOAM: The Open Source CFD Toolbox
   \\    /   O peration     | Website:  https://openfoam.org
    \\  /    A nd           | Version:  7
     \\/     M anipulation  |
\*---------------------------------------------------------------------------*/
FoamFile
{
    version     2.0;
    format      ascii;
    class       volScalarField;
    location    "5";
    object      rhois;
}
// * * * * * * * * * * * * * * * * * * * * * * * * * * * * * * * * * * * * * //

dimensions      [1 -3 0 0 0 0 0];

internalField   nonuniform List<scalar> 
900
(
3.4516e-10
3.4516e-10
3.4516e-10
3.45158e-10
3.45155e-10
3.45148e-10
3.45133e-10
3.45102e-10
3.45038e-10
3.44908e-10
3.44642e-10
3.44106e-10
3.43029e-10
3.4086e-10
3.3645e-10
3.27282e-10
3.07551e-10
2.63582e-10
1.69825e-10
3.92747e-11
7.07636e-11
7.07635e-11
7.07631e-11
7.07622e-11
7.07604e-11
7.07564e-11
7.07481e-11
7.07307e-11
7.06946e-11
7.0621e-11
7.04722e-11
7.01748e-11
6.95862e-11
6.84321e-11
6.61925e-11
6.19196e-11
5.40618e-11
4.08367e-11
2.28243e-11
7.4184e-12
2.19069e-11
2.19069e-11
2.19067e-11
2.19063e-11
2.19056e-11
2.19039e-11
2.19004e-11
2.18932e-11
2.18783e-11
2.1848e-11
2.17875e-11
2.16681e-11
2.14367e-11
2.09966e-11
2.01807e-11
1.87267e-11
1.63015e-11
1.27017e-11
8.33724e-12
4.51288e-12
9.9001e-12
9.90007e-12
9.9e-12
9.89983e-12
9.89948e-12
9.89874e-12
9.89718e-12
9.89394e-12
9.88731e-12
9.874e-12
9.84768e-12
9.79666e-12
9.69985e-12
9.521e-12
9.20187e-12
8.65984e-12
7.80419e-12
6.59475e-12
5.14228e-12
3.7499e-12
6.04749e-12
6.04748e-12
6.04744e-12
6.04736e-12
6.04718e-12
6.0468e-12
6.04601e-12
6.04438e-12
6.04109e-12
6.03454e-12
6.02176e-12
5.99743e-12
5.95224e-12
5.87094e-12
5.73032e-12
5.49954e-12
5.1469e-12
4.65826e-12
4.06467e-12
3.4564e-12
4.53973e-12
4.53972e-12
4.5397e-12
4.53966e-12
4.53955e-12
4.53934e-12
4.5389e-12
4.538e-12
4.53619e-12
4.53265e-12
4.52584e-12
4.51311e-12
4.48996e-12
4.4493e-12
4.38086e-12
4.27158e-12
4.10853e-12
3.88561e-12
3.61293e-12
3.3226e-12
3.86451e-12
3.86451e-12
3.8645e-12
3.86447e-12
3.86441e-12
3.86428e-12
3.86401e-12
3.86348e-12
3.86243e-12
3.86039e-12
3.85653e-12
3.84944e-12
3.83682e-12
3.81518e-12
3.77962e-12
3.72422e-12
3.64333e-12
3.53429e-12
3.40106e-12
3.25655e-12
3.53569e-12
3.53569e-12
3.53568e-12
3.53566e-12
3.53562e-12
3.53554e-12
3.53538e-12
3.53505e-12
3.53442e-12
3.5332e-12
3.53095e-12
3.52688e-12
3.51978e-12
3.50787e-12
3.48876e-12
3.45967e-12
3.41806e-12
3.36286e-12
3.29589e-12
3.22276e-12
3.36789e-12
3.36789e-12
3.36788e-12
3.36787e-12
3.36785e-12
3.3678e-12
3.36769e-12
3.36749e-12
3.36711e-12
3.36638e-12
3.36505e-12
3.3627e-12
3.35867e-12
3.35206e-12
3.34168e-12
3.32622e-12
3.30456e-12
3.27629e-12
3.24233e-12
3.20527e-12
3.28043e-12
3.28043e-12
3.28043e-12
3.28042e-12
3.2804e-12
3.28037e-12
3.28031e-12
3.28019e-12
3.27995e-12
3.27952e-12
3.27875e-12
3.2774e-12
3.27514e-12
3.27149e-12
3.26589e-12
3.25771e-12
3.24646e-12
3.23202e-12
3.21487e-12
3.19622e-12
3.23467e-12
3.23467e-12
3.23466e-12
3.23466e-12
3.23465e-12
3.23463e-12
3.23459e-12
3.23452e-12
3.23438e-12
3.23413e-12
3.23369e-12
3.23293e-12
3.23168e-12
3.22971e-12
3.22673e-12
3.22246e-12
3.2167e-12
3.2094e-12
3.20084e-12
3.19157e-12
3.2109e-12
3.2109e-12
3.2109e-12
3.2109e-12
3.21089e-12
3.21088e-12
3.21086e-12
3.21081e-12
3.21074e-12
3.2106e-12
3.21035e-12
3.20994e-12
3.20926e-12
3.20822e-12
3.20667e-12
3.20448e-12
3.20158e-12
3.19796e-12
3.19375e-12
3.18922e-12
3.19874e-12
3.19874e-12
3.19874e-12
3.19874e-12
3.19873e-12
3.19873e-12
3.19871e-12
3.19869e-12
3.19865e-12
3.19857e-12
3.19844e-12
3.19822e-12
3.19787e-12
3.19733e-12
3.19654e-12
3.19545e-12
3.19402e-12
3.19226e-12
3.19023e-12
3.18806e-12
3.19263e-12
3.19263e-12
3.19263e-12
3.19263e-12
3.19263e-12
3.19263e-12
3.19262e-12
3.19261e-12
3.19258e-12
3.19254e-12
3.19247e-12
3.19236e-12
3.19218e-12
3.19191e-12
3.19152e-12
3.19099e-12
3.1903e-12
3.18946e-12
3.18851e-12
3.18749e-12
3.18964e-12
3.18964e-12
3.18964e-12
3.18964e-12
3.18963e-12
3.18963e-12
3.18963e-12
3.18962e-12
3.18961e-12
3.18959e-12
3.18955e-12
3.1895e-12
3.18941e-12
3.18928e-12
3.18909e-12
3.18884e-12
3.18852e-12
3.18813e-12
3.18768e-12
3.18721e-12
3.1882e-12
3.1882e-12
3.1882e-12
3.1882e-12
3.1882e-12
3.1882e-12
3.1882e-12
3.18819e-12
3.18819e-12
3.18818e-12
3.18816e-12
3.18813e-12
3.18809e-12
3.18803e-12
3.18794e-12
3.18782e-12
3.18767e-12
3.1875e-12
3.1873e-12
3.18708e-12
3.18753e-12
3.18753e-12
3.18753e-12
3.18753e-12
3.18753e-12
3.18753e-12
3.18752e-12
3.18752e-12
3.18752e-12
3.18752e-12
3.18751e-12
3.18749e-12
3.18747e-12
3.18745e-12
3.18741e-12
3.18735e-12
3.18729e-12
3.18721e-12
3.18712e-12
3.18703e-12
3.18722e-12
3.18722e-12
3.18722e-12
3.18722e-12
3.18722e-12
3.18722e-12
3.18722e-12
3.18722e-12
3.18722e-12
3.18721e-12
3.18721e-12
3.1872e-12
3.1872e-12
3.18718e-12
3.18717e-12
3.18714e-12
3.18711e-12
3.18708e-12
3.18704e-12
3.187e-12
3.18708e-12
3.18708e-12
3.18708e-12
3.18708e-12
3.18708e-12
3.18708e-12
3.18708e-12
3.18708e-12
3.18708e-12
3.18708e-12
3.18708e-12
3.18708e-12
3.18707e-12
3.18707e-12
3.18706e-12
3.18705e-12
3.18704e-12
3.18702e-12
3.18701e-12
3.18699e-12
3.18702e-12
3.18702e-12
3.18702e-12
3.18702e-12
3.18702e-12
3.18702e-12
3.18702e-12
3.18702e-12
3.18702e-12
3.18702e-12
3.18702e-12
3.18702e-12
3.18702e-12
3.18702e-12
3.18701e-12
3.18701e-12
3.187e-12
3.187e-12
3.18699e-12
3.18698e-12
3.187e-12
3.187e-12
3.187e-12
3.187e-12
3.187e-12
3.187e-12
3.187e-12
3.187e-12
3.187e-12
3.187e-12
3.187e-12
3.187e-12
3.187e-12
3.187e-12
3.18699e-12
3.18699e-12
3.18699e-12
3.18699e-12
3.18698e-12
3.18698e-12
3.18699e-12
3.18699e-12
3.18699e-12
3.18699e-12
3.18699e-12
3.18699e-12
3.18699e-12
3.18699e-12
3.18699e-12
3.18699e-12
3.18699e-12
3.18699e-12
3.18699e-12
3.18699e-12
3.18699e-12
3.18699e-12
3.18698e-12
3.18698e-12
3.18698e-12
3.18698e-12
3.18698e-12
3.18698e-12
3.18698e-12
3.18698e-12
3.18698e-12
3.18698e-12
3.18698e-12
3.18698e-12
3.18698e-12
3.18698e-12
3.18698e-12
3.18698e-12
3.18698e-12
3.18698e-12
3.18698e-12
3.18698e-12
3.18698e-12
3.18698e-12
3.18698e-12
3.18698e-12
3.18698e-12
3.18698e-12
3.18698e-12
3.18698e-12
3.18698e-12
3.18698e-12
3.18698e-12
3.18698e-12
3.18698e-12
3.18698e-12
3.18698e-12
3.18698e-12
3.18698e-12
3.18698e-12
3.18698e-12
3.18698e-12
3.18698e-12
3.18698e-12
3.18698e-12
3.18698e-12
3.18698e-12
3.18698e-12
3.18698e-12
3.18698e-12
3.18698e-12
3.18698e-12
3.18698e-12
3.18698e-12
3.18698e-12
3.18698e-12
3.18698e-12
3.18698e-12
3.18698e-12
3.18698e-12
3.18698e-12
3.18698e-12
3.18698e-12
3.18698e-12
3.18698e-12
3.18698e-12
3.18698e-12
3.18698e-12
3.18698e-12
3.18698e-12
3.18698e-12
3.18698e-12
3.18698e-12
3.18698e-12
3.18698e-12
3.18698e-12
3.18698e-12
3.18698e-12
3.18698e-12
3.18698e-12
3.18698e-12
3.18698e-12
3.18698e-12
3.18698e-12
3.18698e-12
3.18698e-12
3.18698e-12
3.18698e-12
3.18698e-12
3.18698e-12
3.18698e-12
3.18698e-12
3.18698e-12
3.18698e-12
3.18698e-12
3.18698e-12
3.18698e-12
3.18698e-12
3.18698e-12
3.18698e-12
3.18698e-12
3.18698e-12
3.18698e-12
3.18698e-12
3.18698e-12
3.18698e-12
3.18698e-12
3.18698e-12
3.18698e-12
3.18698e-12
3.18698e-12
3.18698e-12
3.18698e-12
3.18698e-12
3.18698e-12
3.18698e-12
3.18698e-12
3.18698e-12
3.18698e-12
3.18698e-12
3.18698e-12
3.18698e-12
3.18698e-12
3.18698e-12
3.18698e-12
3.18698e-12
3.18698e-12
3.18698e-12
3.18698e-12
3.18698e-12
3.18698e-12
3.18698e-12
3.18698e-12
3.18698e-12
3.18698e-12
3.18698e-12
3.18698e-12
3.18698e-12
3.18698e-12
3.18698e-12
3.18698e-12
3.18698e-12
3.18698e-12
3.18698e-12
3.18698e-12
3.18698e-12
3.18698e-12
3.18698e-12
3.18698e-12
3.18698e-12
3.18698e-12
3.18698e-12
3.18698e-12
3.18698e-12
3.18698e-12
3.18698e-12
3.18698e-12
3.18698e-12
3.18698e-12
3.18698e-12
3.18698e-12
3.18698e-12
3.18698e-12
3.18698e-12
3.18698e-12
3.18698e-12
3.18698e-12
3.18698e-12
3.18698e-12
3.18698e-12
3.18698e-12
3.18698e-12
3.18698e-12
3.18698e-12
3.18698e-12
3.18698e-12
3.18698e-12
3.18698e-12
3.18698e-12
3.18698e-12
3.18698e-12
3.18698e-12
3.18698e-12
3.18698e-12
3.18698e-12
3.18698e-12
3.18698e-12
3.18698e-12
3.18698e-12
3.18698e-12
3.18698e-12
3.18698e-12
3.18698e-12
3.18698e-12
3.18698e-12
3.18698e-12
3.18698e-12
3.18698e-12
3.18698e-12
3.18698e-12
3.18698e-12
3.18698e-12
3.18698e-12
3.18698e-12
3.18698e-12
3.18698e-12
3.18698e-12
3.18698e-12
3.18698e-12
3.18698e-12
3.18698e-12
3.18698e-12
3.18698e-12
3.18698e-12
3.18698e-12
3.18698e-12
3.18698e-12
3.18698e-12
3.18698e-12
3.18698e-12
3.18698e-12
3.18698e-12
3.18698e-12
3.18698e-12
3.18698e-12
3.18698e-12
3.18698e-12
3.18698e-12
3.18698e-12
3.18698e-12
3.18698e-12
3.18698e-12
3.18698e-12
3.18698e-12
3.18698e-12
3.18698e-12
3.18698e-12
3.18698e-12
3.18698e-12
3.18698e-12
3.18698e-12
3.18698e-12
3.18698e-12
3.18698e-12
3.18698e-12
3.18698e-12
3.18698e-12
3.18698e-12
3.18698e-12
3.18698e-12
3.18698e-12
3.18698e-12
3.18698e-12
3.18698e-12
3.18698e-12
3.18698e-12
3.18698e-12
3.18698e-12
3.18698e-12
3.18698e-12
3.18698e-12
3.18698e-12
3.18698e-12
3.18698e-12
3.18698e-12
3.18698e-12
3.18698e-12
3.18698e-12
3.18698e-12
3.18698e-12
3.18698e-12
3.18698e-12
3.18698e-12
3.18698e-12
3.18698e-12
3.18698e-12
3.18698e-12
3.18698e-12
3.18698e-12
3.18698e-12
3.18698e-12
3.18698e-12
3.18698e-12
3.18698e-12
3.18698e-12
3.18698e-12
3.18698e-12
3.18698e-12
3.18698e-12
3.18698e-12
3.18698e-12
3.18698e-12
3.18698e-12
3.18698e-12
3.18698e-12
3.18698e-12
3.18698e-12
3.18698e-12
3.18698e-12
3.18698e-12
3.18698e-12
3.18698e-12
3.18698e-12
3.18698e-12
3.18698e-12
3.18698e-12
3.18698e-12
3.18698e-12
3.18698e-12
3.18698e-12
3.18698e-12
3.18698e-12
3.18698e-12
3.18698e-12
3.18698e-12
3.18698e-12
3.18698e-12
3.18698e-12
3.18698e-12
3.18698e-12
3.18698e-12
3.18698e-12
3.18698e-12
3.18698e-12
3.18698e-12
3.18698e-12
3.18698e-12
3.18698e-12
3.18698e-12
3.18698e-12
3.18698e-12
3.18698e-12
3.18698e-12
3.18698e-12
3.18698e-12
3.18698e-12
3.18698e-12
3.18698e-12
3.18698e-12
3.18698e-12
3.18698e-12
3.18698e-12
3.18698e-12
3.18698e-12
3.18698e-12
3.18698e-12
3.18698e-12
3.18698e-12
3.18698e-12
3.18698e-12
3.18698e-12
3.18698e-12
3.18698e-12
3.18698e-12
3.18698e-12
3.18698e-12
3.18698e-12
3.18698e-12
3.18698e-12
3.18698e-12
3.18698e-12
3.18698e-12
3.18698e-12
3.18698e-12
3.18698e-12
3.18698e-12
3.18698e-12
3.18698e-12
3.18698e-12
3.18698e-12
3.18698e-12
3.18698e-12
3.18698e-12
3.18698e-12
3.18698e-12
3.18698e-12
3.18698e-12
3.18698e-12
3.18698e-12
3.18698e-12
3.18698e-12
3.18698e-12
3.18698e-12
3.18698e-12
3.18698e-12
3.18698e-12
3.18698e-12
3.18698e-12
3.18698e-12
3.18698e-12
3.18698e-12
3.18698e-12
3.18698e-12
3.18698e-12
3.18698e-12
3.18698e-12
3.18698e-12
3.18698e-12
3.18698e-12
3.18698e-12
3.18698e-12
3.18698e-12
3.18698e-12
3.18698e-12
3.18698e-12
3.18698e-12
3.18698e-12
3.18698e-12
3.18698e-12
3.18698e-12
3.18698e-12
3.18698e-12
3.18698e-12
3.18698e-12
3.18698e-12
3.18698e-12
3.18698e-12
3.18698e-12
3.18698e-12
3.18698e-12
3.18698e-12
3.18698e-12
3.18698e-12
3.18698e-12
3.18698e-12
3.18698e-12
3.18698e-12
3.18698e-12
3.18698e-12
3.18698e-12
3.18698e-12
3.18698e-12
3.18698e-12
3.18698e-12
3.18698e-12
3.18698e-12
3.18698e-12
3.18698e-12
3.18698e-12
3.18698e-12
3.18698e-12
3.18698e-12
3.18698e-12
3.18698e-12
3.18698e-12
3.18698e-12
3.18698e-12
3.18698e-12
3.18698e-12
3.18698e-12
3.18698e-12
3.18698e-12
3.18698e-12
3.18698e-12
3.18698e-12
3.18698e-12
3.18698e-12
3.18698e-12
3.18698e-12
3.18698e-12
3.18698e-12
3.18698e-12
3.18698e-12
3.18698e-12
3.18698e-12
3.18698e-12
)
;

boundaryField
{
    topWall
    {
        type            zeroGradient;
    }
    bottomWall
    {
        type            zeroGradient;
    }
    sideWallL
    {
        type            symmetry;
    }
    sideWallR
    {
        type            zeroGradient;
    }
    frontAndBack
    {
        type            empty;
    }
}


// ************************************************************************* //
