/*--------------------------------*- C++ -*----------------------------------*\
  =========                 |
  \\      /  F ield         | OpenFOAM: The Open Source CFD Toolbox
   \\    /   O peration     | Website:  https://openfoam.org
    \\  /    A nd           | Version:  7
     \\/     M anipulation  |
\*---------------------------------------------------------------------------*/
FoamFile
{
    version     2.0;
    format      ascii;
    class       volScalarField;
    location    "5";
    object      rhot2;
}
// * * * * * * * * * * * * * * * * * * * * * * * * * * * * * * * * * * * * * //

dimensions      [1 -3 0 0 0 0 0];

internalField   nonuniform List<scalar> 
900
(
2.55143e-25
2.55143e-25
2.55141e-25
2.55138e-25
2.55131e-25
2.55116e-25
2.55085e-25
2.55019e-25
2.54885e-25
2.5461e-25
2.54056e-25
2.52949e-25
2.50747e-25
2.4638e-25
2.37704e-25
2.20408e-25
1.86134e-25
1.22636e-25
3.74495e-26
7.0492e-28
3.83506e-27
3.83503e-27
3.83497e-27
3.83483e-27
3.83454e-27
3.83391e-27
3.83259e-27
3.82983e-27
3.82417e-27
3.81268e-27
3.78967e-27
3.74423e-27
3.6559e-27
3.48765e-27
3.17743e-27
2.63883e-27
1.81195e-27
8.34826e-28
1.67259e-28
7.50886e-30
1.61211e-28
1.6121e-28
1.61206e-28
1.61198e-28
1.61181e-28
1.61145e-28
1.61068e-28
1.6091e-28
1.60586e-28
1.59932e-28
1.58637e-28
1.5612e-28
1.51342e-28
1.42572e-28
1.2729e-28
1.02899e-28
6.94881e-29
3.43966e-29
1.05802e-29
1.96677e-30
1.79173e-29
1.79172e-29
1.79168e-29
1.79159e-29
1.7914e-29
1.79099e-29
1.79014e-29
1.78838e-29
1.78481e-29
1.77767e-29
1.76369e-29
1.73692e-29
1.68715e-29
1.5982e-29
1.44812e-29
1.21634e-29
9.04166e-30
5.6219e-30
2.81837e-30
1.20448e-30
4.51093e-30
4.5109e-30
4.51082e-30
4.51063e-30
4.51024e-30
4.5094e-30
4.50765e-30
4.50407e-30
4.49685e-30
4.48256e-30
4.45491e-30
4.40277e-30
4.30748e-30
4.14034e-30
3.8631e-30
3.43792e-30
2.85407e-30
2.16486e-30
1.4946e-30
9.73363e-31
2.03395e-30
2.03394e-30
2.03391e-30
2.03385e-30
2.03372e-30
2.03345e-30
2.03288e-30
2.03173e-30
2.02943e-30
2.02492e-30
2.01632e-30
2.00034e-30
1.97162e-30
1.92206e-30
1.8409e-30
1.71678e-30
1.54328e-30
1.32717e-30
1.09348e-30
8.78697e-31
1.31147e-30
1.31147e-30
1.31145e-30
1.31143e-30
1.31137e-30
1.31125e-30
1.311e-30
1.3105e-30
1.30952e-30
1.30762e-30
1.30404e-30
1.2975e-30
1.28594e-30
1.26632e-30
1.23464e-30
1.18654e-30
1.11892e-30
1.03241e-30
9.33553e-31
8.34395e-31
1.03428e-30
1.03428e-30
1.03427e-30
1.03426e-30
1.03423e-30
1.03417e-30
1.03404e-30
1.03378e-30
1.03329e-30
1.03234e-30
1.03058e-30
1.02742e-30
1.02193e-30
1.01278e-30
9.98252e-31
9.76459e-31
9.45951e-31
9.06619e-31
8.60584e-31
8.12363e-31
9.1031e-31
9.10308e-31
9.10305e-31
9.10296e-31
9.10279e-31
9.10243e-31
9.10171e-31
9.10029e-31
9.09756e-31
9.09241e-31
9.08302e-31
9.06642e-31
9.0381e-31
8.99176e-31
8.91944e-31
8.81261e-31
8.66467e-31
8.47456e-31
8.25054e-31
8.01127e-31
8.50238e-31
8.50237e-31
8.50235e-31
8.5023e-31
8.5022e-31
8.50199e-31
8.50157e-31
8.50075e-31
8.49919e-31
8.49631e-31
8.49112e-31
8.4821e-31
8.46698e-31
8.44269e-31
8.40545e-31
8.35136e-31
8.27745e-31
8.18333e-31
8.07264e-31
7.95362e-31
8.20046e-31
8.20045e-31
8.20044e-31
8.20041e-31
8.20035e-31
8.20022e-31
8.19998e-31
8.19951e-31
8.19862e-31
8.19699e-31
8.19412e-31
8.18919e-31
8.18109e-31
8.16828e-31
8.14899e-31
8.12143e-31
8.08431e-31
8.03757e-31
7.98295e-31
7.9242e-31
8.04708e-31
8.04707e-31
8.04707e-31
8.04705e-31
8.04701e-31
8.04694e-31
8.0468e-31
8.04653e-31
8.04603e-31
8.04513e-31
8.04356e-31
8.04091e-31
8.03661e-31
8.02993e-31
8.02004e-31
8.00611e-31
7.98763e-31
7.96463e-31
7.93796e-31
7.90935e-31
7.96952e-31
7.96952e-31
7.96952e-31
7.96951e-31
7.96949e-31
7.96944e-31
7.96937e-31
7.96922e-31
7.96894e-31
7.96845e-31
7.96762e-31
7.96622e-31
7.96399e-31
7.96058e-31
7.95559e-31
7.94868e-31
7.93963e-31
7.92849e-31
7.91567e-31
7.90198e-31
7.93085e-31
7.93085e-31
7.93084e-31
7.93084e-31
7.93083e-31
7.93081e-31
7.93076e-31
7.93068e-31
7.93054e-31
7.93028e-31
7.92984e-31
7.92913e-31
7.928e-31
7.9263e-31
7.92385e-31
7.92049e-31
7.91615e-31
7.91085e-31
7.90481e-31
7.89838e-31
7.91193e-31
7.91193e-31
7.91193e-31
7.91192e-31
7.91192e-31
7.9119e-31
7.91188e-31
7.91184e-31
7.91176e-31
7.91163e-31
7.91141e-31
7.91106e-31
7.9105e-31
7.90968e-31
7.9085e-31
7.90691e-31
7.90487e-31
7.90241e-31
7.89962e-31
7.89667e-31
7.90287e-31
7.90287e-31
7.90287e-31
7.90287e-31
7.90287e-31
7.90286e-31
7.90285e-31
7.90283e-31
7.90279e-31
7.90273e-31
7.90262e-31
7.90245e-31
7.90218e-31
7.90179e-31
7.90124e-31
7.90051e-31
7.89957e-31
7.89845e-31
7.8972e-31
7.89587e-31
7.89864e-31
7.89864e-31
7.89864e-31
7.89864e-31
7.89864e-31
7.89863e-31
7.89863e-31
7.89862e-31
7.8986e-31
7.89857e-31
7.89852e-31
7.89844e-31
7.89831e-31
7.89814e-31
7.89789e-31
7.89755e-31
7.89714e-31
7.89664e-31
7.89608e-31
7.8955e-31
7.89671e-31
7.89671e-31
7.89671e-31
7.89671e-31
7.89671e-31
7.89671e-31
7.8967e-31
7.8967e-31
7.89669e-31
7.89668e-31
7.89665e-31
7.89662e-31
7.89656e-31
7.89648e-31
7.89637e-31
7.89622e-31
7.89604e-31
7.89583e-31
7.89559e-31
7.89533e-31
7.89585e-31
7.89585e-31
7.89585e-31
7.89585e-31
7.89585e-31
7.89585e-31
7.89585e-31
7.89585e-31
7.89584e-31
7.89583e-31
7.89582e-31
7.89581e-31
7.89578e-31
7.89575e-31
7.8957e-31
7.89564e-31
7.89556e-31
7.89547e-31
7.89537e-31
7.89526e-31
7.89548e-31
7.89548e-31
7.89548e-31
7.89548e-31
7.89548e-31
7.89548e-31
7.89548e-31
7.89547e-31
7.89547e-31
7.89547e-31
7.89547e-31
7.89546e-31
7.89545e-31
7.89543e-31
7.89541e-31
7.89539e-31
7.89536e-31
7.89532e-31
7.89528e-31
7.89523e-31
7.89532e-31
7.89532e-31
7.89532e-31
7.89532e-31
7.89532e-31
7.89532e-31
7.89532e-31
7.89532e-31
7.89532e-31
7.89532e-31
7.89531e-31
7.89531e-31
7.89531e-31
7.8953e-31
7.89529e-31
7.89528e-31
7.89527e-31
7.89525e-31
7.89524e-31
7.89522e-31
7.89525e-31
7.89525e-31
7.89525e-31
7.89525e-31
7.89525e-31
7.89525e-31
7.89525e-31
7.89525e-31
7.89525e-31
7.89525e-31
7.89525e-31
7.89525e-31
7.89525e-31
7.89525e-31
7.89524e-31
7.89524e-31
7.89523e-31
7.89523e-31
7.89522e-31
7.89521e-31
7.89523e-31
7.89523e-31
7.89523e-31
7.89523e-31
7.89523e-31
7.89523e-31
7.89523e-31
7.89523e-31
7.89523e-31
7.89523e-31
7.89523e-31
7.89523e-31
7.89523e-31
7.89522e-31
7.89522e-31
7.89522e-31
7.89522e-31
7.89522e-31
7.89521e-31
7.89521e-31
7.89522e-31
7.89522e-31
7.89522e-31
7.89522e-31
7.89522e-31
7.89522e-31
7.89522e-31
7.89522e-31
7.89522e-31
7.89522e-31
7.89522e-31
7.89522e-31
7.89522e-31
7.89522e-31
7.89522e-31
7.89521e-31
7.89521e-31
7.89521e-31
7.89521e-31
7.89521e-31
7.89521e-31
7.89521e-31
7.89521e-31
7.89521e-31
7.89521e-31
7.89521e-31
7.89521e-31
7.89521e-31
7.89521e-31
7.89521e-31
7.89521e-31
7.89521e-31
7.89521e-31
7.89521e-31
7.89521e-31
7.89521e-31
7.89521e-31
7.89521e-31
7.89521e-31
7.89521e-31
7.89521e-31
7.89521e-31
7.89521e-31
7.89521e-31
7.89521e-31
7.89521e-31
7.89521e-31
7.89521e-31
7.89521e-31
7.89521e-31
7.89521e-31
7.89521e-31
7.89521e-31
7.89521e-31
7.89521e-31
7.89521e-31
7.89521e-31
7.89521e-31
7.89521e-31
7.89521e-31
7.89521e-31
7.89521e-31
7.89521e-31
7.89521e-31
7.89521e-31
7.89521e-31
7.89521e-31
7.89521e-31
7.89521e-31
7.89521e-31
7.89521e-31
7.89521e-31
7.89521e-31
7.89521e-31
7.89521e-31
7.89521e-31
7.89521e-31
7.89521e-31
7.89521e-31
7.89521e-31
7.89521e-31
7.89521e-31
7.89521e-31
7.89521e-31
7.89521e-31
7.89521e-31
7.89521e-31
7.89521e-31
7.89521e-31
7.89521e-31
7.89521e-31
7.89521e-31
7.89521e-31
7.89521e-31
7.89521e-31
7.89521e-31
7.89521e-31
7.89521e-31
7.89521e-31
7.89521e-31
7.89521e-31
7.89521e-31
7.89521e-31
7.89521e-31
7.89521e-31
7.89521e-31
7.89521e-31
7.89521e-31
7.89521e-31
7.89521e-31
7.89521e-31
7.89521e-31
7.89521e-31
7.89521e-31
7.89521e-31
7.89521e-31
7.89521e-31
7.89521e-31
7.89521e-31
7.89521e-31
7.89521e-31
7.89521e-31
7.89521e-31
7.89521e-31
7.89521e-31
7.89521e-31
7.89521e-31
7.89521e-31
7.89521e-31
7.89521e-31
7.89521e-31
7.89521e-31
7.89521e-31
7.89521e-31
7.89521e-31
7.89521e-31
7.89521e-31
7.89521e-31
7.89521e-31
7.89521e-31
7.89521e-31
7.89521e-31
7.89521e-31
7.89521e-31
7.89521e-31
7.89521e-31
7.89521e-31
7.89521e-31
7.89521e-31
7.89521e-31
7.89521e-31
7.89521e-31
7.89521e-31
7.89521e-31
7.89521e-31
7.89521e-31
7.89521e-31
7.89521e-31
7.89521e-31
7.89521e-31
7.89521e-31
7.89521e-31
7.89521e-31
7.89521e-31
7.89521e-31
7.89521e-31
7.89521e-31
7.89521e-31
7.89521e-31
7.89521e-31
7.89521e-31
7.89521e-31
7.89521e-31
7.89521e-31
7.89521e-31
7.89521e-31
7.89521e-31
7.89521e-31
7.89521e-31
7.89521e-31
7.89521e-31
7.89521e-31
7.89521e-31
7.89521e-31
7.89521e-31
7.89521e-31
7.89521e-31
7.89521e-31
7.89521e-31
7.89521e-31
7.89521e-31
7.89521e-31
7.89521e-31
7.89521e-31
7.89521e-31
7.89521e-31
7.89521e-31
7.89521e-31
7.89521e-31
7.89521e-31
7.89521e-31
7.89521e-31
7.89521e-31
7.89521e-31
7.89521e-31
7.89521e-31
7.89521e-31
7.89521e-31
7.89521e-31
7.89521e-31
7.89521e-31
7.89521e-31
7.89521e-31
7.89521e-31
7.89521e-31
7.89521e-31
7.89521e-31
7.89521e-31
7.89521e-31
7.89521e-31
7.89521e-31
7.89521e-31
7.89521e-31
7.89521e-31
7.89521e-31
7.89521e-31
7.89521e-31
7.89521e-31
7.89521e-31
7.89521e-31
7.89521e-31
7.89521e-31
7.89521e-31
7.89521e-31
7.89521e-31
7.89521e-31
7.89521e-31
7.89521e-31
7.89521e-31
7.89521e-31
7.89521e-31
7.89521e-31
7.89521e-31
7.89521e-31
7.89521e-31
7.89521e-31
7.89521e-31
7.89521e-31
7.89521e-31
7.89521e-31
7.89521e-31
7.89521e-31
7.89521e-31
7.89521e-31
7.89521e-31
7.89521e-31
7.89521e-31
7.89521e-31
7.89521e-31
7.89521e-31
7.89521e-31
7.89521e-31
7.89521e-31
7.89521e-31
7.89521e-31
7.89521e-31
7.89521e-31
7.89521e-31
7.89521e-31
7.89521e-31
7.89521e-31
7.89521e-31
7.89521e-31
7.89521e-31
7.89521e-31
7.89521e-31
7.89521e-31
7.89521e-31
7.89521e-31
7.89521e-31
7.89521e-31
7.89521e-31
7.89521e-31
7.89521e-31
7.89521e-31
7.89521e-31
7.89521e-31
7.89521e-31
7.89521e-31
7.89521e-31
7.89521e-31
7.89521e-31
7.89521e-31
7.89521e-31
7.89521e-31
7.89521e-31
7.89521e-31
7.89521e-31
7.89521e-31
7.89521e-31
7.89521e-31
7.89521e-31
7.89521e-31
7.89521e-31
7.89521e-31
7.89521e-31
7.89521e-31
7.89521e-31
7.89521e-31
7.89521e-31
7.89521e-31
7.89521e-31
7.89521e-31
7.89521e-31
7.89521e-31
7.89521e-31
7.89521e-31
7.89521e-31
7.89521e-31
7.89521e-31
7.89521e-31
7.89521e-31
7.89521e-31
7.89521e-31
7.89521e-31
7.89521e-31
7.89521e-31
7.89521e-31
7.89521e-31
7.89521e-31
7.89521e-31
7.89521e-31
7.89521e-31
7.89521e-31
7.89521e-31
7.89521e-31
7.89521e-31
7.89521e-31
7.89521e-31
7.89521e-31
7.89521e-31
7.89521e-31
7.89521e-31
7.89521e-31
7.89521e-31
7.89521e-31
7.89521e-31
7.89521e-31
7.89521e-31
7.89521e-31
7.89521e-31
7.89521e-31
7.89521e-31
7.89521e-31
7.89521e-31
7.89521e-31
7.89521e-31
7.89521e-31
7.89521e-31
7.89521e-31
7.89521e-31
7.89521e-31
7.89521e-31
7.89521e-31
7.89521e-31
7.89521e-31
7.89521e-31
7.89521e-31
7.89521e-31
7.89521e-31
7.89521e-31
7.89521e-31
7.89521e-31
7.89521e-31
7.89521e-31
7.89521e-31
7.89521e-31
7.89521e-31
7.89521e-31
7.89521e-31
7.89521e-31
7.89521e-31
7.89521e-31
7.89521e-31
7.89521e-31
7.89521e-31
7.89521e-31
7.89521e-31
7.89521e-31
7.89521e-31
7.89521e-31
7.89521e-31
7.89521e-31
7.89521e-31
7.89521e-31
7.89521e-31
7.89521e-31
7.89521e-31
7.89521e-31
7.89521e-31
7.89521e-31
7.89521e-31
7.89521e-31
7.89521e-31
7.89521e-31
7.89521e-31
7.89521e-31
7.89521e-31
7.89521e-31
7.89521e-31
7.89521e-31
7.89521e-31
7.89521e-31
7.89521e-31
7.89521e-31
7.89521e-31
7.89521e-31
7.89521e-31
7.89521e-31
7.89521e-31
7.89521e-31
7.89521e-31
7.89521e-31
7.89521e-31
7.89521e-31
7.89521e-31
7.89521e-31
7.89521e-31
7.89521e-31
7.89521e-31
7.89521e-31
7.89521e-31
7.89521e-31
7.89521e-31
7.89521e-31
7.89521e-31
7.89521e-31
7.89521e-31
7.89521e-31
7.89521e-31
)
;

boundaryField
{
    topWall
    {
        type            zeroGradient;
    }
    bottomWall
    {
        type            zeroGradient;
    }
    sideWallL
    {
        type            symmetry;
    }
    sideWallR
    {
        type            zeroGradient;
    }
    frontAndBack
    {
        type            empty;
    }
}


// ************************************************************************* //
