/*--------------------------------*- C++ -*----------------------------------*\
  =========                 |
  \\      /  F ield         | OpenFOAM: The Open Source CFD Toolbox
   \\    /   O peration     | Website:  https://openfoam.org
    \\  /    A nd           | Version:  7
     \\/     M anipulation  |
\*---------------------------------------------------------------------------*/
FoamFile
{
    version     2.0;
    format      ascii;
    class       volScalarField;
    location    "5";
    object      T;
}
// * * * * * * * * * * * * * * * * * * * * * * * * * * * * * * * * * * * * * //

dimensions      [0 0 0 1 0 0 0];

internalField   nonuniform List<scalar> 
900
(
314.939
314.939
314.939
314.939
314.939
314.938
314.938
314.937
314.934
314.93
314.921
314.904
314.87
314.805
314.677
314.416
313.846
312.478
308.686
296.304
302.676
302.675
302.675
302.675
302.675
302.674
302.672
302.669
302.663
302.65
302.625
302.579
302.489
302.319
301.993
301.364
300.124
297.623
292.478
282.066
293.544
293.544
293.544
293.543
293.543
293.542
293.539
293.534
293.525
293.507
293.472
293.407
293.285
293.059
292.645
291.89
290.524
288.092
283.907
277.275
286.899
286.899
286.899
286.898
286.898
286.896
286.893
286.888
286.877
286.857
286.818
286.747
286.617
286.385
285.977
285.272
284.089
282.175
279.26
275.262
282.18
282.18
282.18
282.18
282.179
282.178
282.175
282.169
282.159
282.139
282.102
282.035
281.916
281.711
281.363
280.792
279.891
278.537
276.644
274.266
278.915
278.915
278.914
278.914
278.913
278.912
278.91
278.905
278.895
278.878
278.846
278.789
278.692
278.528
278.26
277.839
277.206
276.309
275.128
273.725
276.714
276.714
276.714
276.714
276.713
276.712
276.71
276.706
276.698
276.684
276.659
276.615
276.541
276.42
276.229
275.939
275.52
274.952
274.236
273.417
275.272
275.272
275.272
275.272
275.271
275.271
275.269
275.266
275.26
275.249
275.231
275.199
275.146
275.063
274.934
274.744
274.48
274.133
273.71
273.238
274.353
274.353
274.353
274.353
274.353
274.352
274.351
274.349
274.344
274.337
274.324
274.302
274.267
274.212
274.13
274.012
273.851
273.646
273.402
273.134
273.785
273.785
273.785
273.785
273.784
273.784
273.783
273.781
273.779
273.774
273.765
273.751
273.729
273.694
273.644
273.573
273.479
273.361
273.223
273.074
273.443
273.443
273.443
273.443
273.442
273.442
273.442
273.441
273.439
273.436
273.43
273.421
273.408
273.387
273.358
273.317
273.263
273.197
273.122
273.04
273.243
273.243
273.243
273.243
273.243
273.243
273.242
273.242
273.241
273.239
273.235
273.23
273.222
273.21
273.194
273.171
273.141
273.105
273.065
273.021
273.13
273.13
273.13
273.13
273.13
273.13
273.129
273.129
273.128
273.127
273.125
273.122
273.118
273.111
273.102
273.09
273.074
273.055
273.034
273.011
273.068
273.068
273.067
273.067
273.067
273.067
273.067
273.067
273.067
273.066
273.065
273.063
273.061
273.057
273.052
273.046
273.038
273.028
273.017
273.006
273.034
273.034
273.034
273.034
273.034
273.034
273.034
273.034
273.034
273.033
273.033
273.032
273.031
273.029
273.026
273.023
273.019
273.014
273.009
273.003
273.017
273.017
273.017
273.017
273.017
273.017
273.017
273.017
273.017
273.016
273.016
273.016
273.015
273.014
273.013
273.011
273.009
273.007
273.004
273.001
273.008
273.008
273.008
273.008
273.008
273.008
273.008
273.008
273.008
273.008
273.008
273.007
273.007
273.007
273.006
273.005
273.004
273.003
273.002
273.001
273.004
273.004
273.004
273.004
273.004
273.004
273.004
273.004
273.004
273.004
273.004
273.003
273.003
273.003
273.003
273.002
273.002
273.001
273.001
273
273.002
273.002
273.002
273.002
273.002
273.002
273.002
273.002
273.002
273.002
273.002
273.002
273.002
273.001
273.001
273.001
273.001
273.001
273
273
273.001
273.001
273.001
273.001
273.001
273.001
273.001
273.001
273.001
273.001
273.001
273.001
273.001
273.001
273.001
273
273
273
273
273
273
273
273
273
273
273
273
273
273
273
273
273
273
273
273
273
273
273
273
273
273
273
273
273
273
273
273
273
273
273
273
273
273
273
273
273
273
273
273
273
273
273
273
273
273
273
273
273
273
273
273
273
273
273
273
273
273
273
273
273
273
273
273
273
273
273
273
273
273
273
273
273
273
273
273
273
273
273
273
273
273
273
273
273
273
273
273
273
273
273
273
273
273
273
273
273
273
273
273
273
273
273
273
273
273
273
273
273
273
273
273
273
273
273
273
273
273
273
273
273
273
273
273
273
273
273
273
273
273
273
273
273
273
273
273
273
273
273
273
273
273
273
273
273
273
273
273
273
273
273
273
273
273
273
273
273
273
273
273
273
273
273
273
273
273
273
273
273
273
273
273
273
273
273
273
273
273
273
273
273
273
273
273
273
273
273
273
273
273
273
273
273
273
273
273
273
273
273
273
273
273
273
273
273
273
273
273
273
273
273
273
273
273
273
273
273
273
273
273
273
273
273
273
273
273
273
273
273
273
273
273
273
273
273
273
273
273
273
273
273
273
273
273
273
273
273
273
273
273
273
273
273
273
273
273
273
273
273
273
273
273
273
273
273
273
273
273
273
273
273
273
273
273
273
273
273
273
273
273
273
273
273
273
273
273
273
273
273
273
273
273
273
273
273
273
273
273
273
273
273
273
273
273
273
273
273
273
273
273
273
273
273
273
273
273
273
273
273
273
273
273
273
273
273
273
273
273
273
273
273
273
273
273
273
273
273
273
273
273
273
273
273
273
273
273
273
273
273
273
273
273
273
273
273
273
273
273
273
273
273
273
273
273
273
273
273
273
273
273
273
273
273
273
273
273
273
273
273
273
273
273
273
273
273
273
273
273
273
273
273
273
273
273
273
273
273
273
273
273
273
273
273
273
273
273
273
273
273
273
273
273
273
273
273
273
273
273
273
273
273
273
273
273
273
273
273
273
273
273
273
273
273
273
273
273
273
273
273
273
273
273
273
273
273
273
273
273
273
273
273
273
273
273
273
273
273
273
273
273
273
273
273
273
273
273
273
273
273
273
273
273
273
273
273
273
273
273
273
273
273
273
273
273
273
273
273
273
273
273
273
273
273
273
273
273
273
273
273
273
273
)
;

boundaryField
{
    topWall
    {
        type            zeroGradient;
    }
    bottomWall
    {
        type            codedFixedValue;
        value           uniform 323;
        name            heating;
        code            #{
            const scalar t = this->db().time().value();
            const scalar Ttemp = 273 + 10*t;
            operator==(Ttemp);
        #};
    }
    sideWallL
    {
        type            symmetry;
    }
    sideWallR
    {
        type            fixedValue;
        value           uniform 273;
    }
    frontAndBack
    {
        type            empty;
    }
}


// ************************************************************************* //
