/*--------------------------------*- C++ -*----------------------------------*\
  =========                 |
  \\      /  F ield         | OpenFOAM: The Open Source CFD Toolbox
   \\    /   O peration     | Website:  https://openfoam.org
    \\  /    A nd           | Version:  7
     \\/     M anipulation  |
\*---------------------------------------------------------------------------*/
FoamFile
{
    version     2.0;
    format      ascii;
    class       volScalarField;
    location    "29";
    object      gradTx;
}
// * * * * * * * * * * * * * * * * * * * * * * * * * * * * * * * * * * * * * //

dimensions      [0 -1 0 1 0 0 0];

internalField   nonuniform List<scalar> 
900
(
-45.4212
-139.264
-242.39
-361.96
-506.76
-688.219
-921.907
-1229.9
-1644.65
-2215.7
-3021.95
-4195.52
-5972.1
-8808.03
-13686.5
-23028.8
-43770.5
-98851.6
-271889
-860566
-130.472
-399.926
-695.681
-1037.96
-1451.44
-1968
-2630.72
-3500.04
-4663.66
-6253.2
-8473.28
-11655.1
-16359.4
-23585.7
-35215.2
-54976
-90492.1
-156915
-278384
-454534
-206.025
-631.187
-1096.82
-1633.82
-2279.55
-3081.68
-4103.66
-5432.87
-7193.23
-9565.23
-12818.9
-17369
-23869
-33371.1
-47589.1
-69275.6
-102535
-152075
-217866
-277108
-269.103
-823.831
-1429.45
-2124.45
-2954.73
-3977.87
-5268.89
-6928.46
-9094.87
-11961.8
-15804.6
-21019.5
-28178.6
-38100.7
-51915.5
-71037.1
-96793.2
-129114
-163320
-185177
-317.713
-971.761
-1683.02
-2494.24
-3455.59
-4628.61
-6091.44
-7945.61
-10325.3
-13409.8
-17439.1
-22732.9
-29708.3
-38883.1
-50833.3
-66030.2
-84425.8
-104613
-122589
-131113
-351.145
-1072.89
-1854.24
-2739.13
-3778.14
-5031.78
-6574.54
-8499.74
-10925.3
-14000.4
-17911.2
-22884.5
-29181.1
-37067.7
-46742.8
-58181.5
-70857.8
-83351.4
-93024.7
-96334.3
-369.802
-1128.61
-1946.04
-2864.69
-3932.54
-5205.45
-6749.83
-8645.51
-10988.4
-13892.4
-17488.6
-21919.6
-27322.7
-33794.6
-41325.2
-49689.8
-58302.2
-66071.8
-71397.4
-72525.7
-374.986
-1143.05
-1966.2
-2883.81
-3939.26
-5181.57
-6666.85
-8459.53
-10632.7
-13267
-16446.4
-20248.4
-24726.6
-29879.4
-35603.3
-41630.2
-47462.5
-52341.9
-55320.3
-55505.5
-368.627
-1122.3
-1925.76
-2814.04
-3824.85
-4999.41
-6383.09
-8025.34
-9978.73
-12296.2
-15025.6
-18200.1
-21822.9
-25844.5
-30134.1
-34447.5
-38405.1
-41501.7
-43176.4
-42960
-353.003
-1073.42
-1837.39
-2675.08
-3618.13
-4700.06
-5956.14
-7422.67
-9135.35
-11126
-13417.5
-16015.3
-18896.3
-21994
-25182.6
-28262.9
-30960.2
-32943.3
-33877.2
-33507.4
-330.483
-1003.74
-1714.03
-2486.56
-3347.17
-4322.26
-5438.33
-6720.95
-8192.86
-9871.01
-11762.1
-13856.3
-16119.6
-18485.1
-20844.6
-23045.1
-24892.6
-26171.2
-26678
-26270.9
-303.326
-920.198
-1567.76
-2266.58
-3037.2
-3899.87
-4873.88
-5976.45
-7221
-8614.58
-10154.4
-11823.6
-13586.2
-15382.2
-17124.5
-18699
-19970.7
-20798.3
-21057.2
-20666.3
-273.545
-828.942
-1409.21
-2030.73
-2709.49
-3460.62
-4297.75
-5231.95
-6270.2
-7413.46
-8654.09
-9973.05
-11336.9
-12695.4
-13980.9
-15109.9
-15988.9
-16525.2
-16640.8
-16288.9
-242.828
-735.095
-1247.1
-1791.64
-2380.87
-3025.87
-3735.96
-4517.81
-5374.27
-6302.82
-7293.89
-8329.05
-9379.37
-10404.5
-11352.9
-12164.2
-12773.9
-13120.6
-13155
-12849.6
-212.506
-642.682
-1088.22
-1558.94
-2063.9
-2611.03
-3206.48
-3853.94
-4553.7
-5301.56
-6087.76
-6895.8
-7701.75
-8473.96
-9173.9
-9758.17
-10182.2
-10404.9
-10395.1
-10136.2
-183.568
-554.666
-937.516
-1339.5
-1767.26
-2226.33
-2720.62
-3251.84
-3818.85
-4416.9
-5036.91
-5664.87
-6281.52
-6862.53
-7379.33
-7800.87
-8096.21
-8237.93
-8205.76
-7989.89
-156.69
-473.056
-798.26
-1137.76
-1496.34
-1877.75
-2284.34
-2716.62
-3172.73
-3648.01
-4134.49
-4620.67
-5091.36
-5528.09
-5909.84
-6214.41
-6420.34
-6509.1
-6467.52
-6289.77
-132.279
-399.055
-672.367
-956.186
-1253.88
-1567.93
-1899.65
-2248.81
-2613.33
-2988.95
-3368.96
-3744.11
-4102.64
-4430.63
-4712.71
-4933.03
-5076.62
-5130.95
-5087.38
-4942.46
-110.532
-333.215
-560.655
-795.688
-1040.64
-1297.1
-1565.69
-1845.81
-2135.4
-2430.76
-2726.39
-3014.99
-3287.55
-3533.67
-3742.12
-3901.61
-4001.69
-4033.8
-3992.29
-3875.13
-91.4778
-275.596
-463.119
-656.039
-855.925
-1063.75
-1279.69
-1503
-1731.79
-1962.96
-2192.08
-2413.46
-2620.26
-2804.76
-2958.8
-3074.3
-3143.96
-3161.94
-3124.49
-3030.48
-75.0271
-225.902
-379.174
-536.212
-698.048
-865.233
-1037.71
-1214.67
-1394.49
-1574.61
-1751.54
-1920.88
-2077.49
-2215.65
-2329.43
-2413.09
-2461.49
-2470.63
-2438.04
-2363.1
-61.0105
-183.602
-307.848
-434.673
-564.731
-698.301
-835.187
-974.636
-1115.26
-1255.01
-1391.14
-1520.32
-1638.67
-1742
-1826.01
-1886.58
-1920.13
-1923.91
-1896.26
-1836.89
-49.2103
-148.019
-247.948
-349.605
-453.385
-559.395
-667.381
-776.667
-886.109
-994.076
-1098.46
-1196.72
-1285.97
-1363.14
-1425.11
-1468.95
-1492.14
-1492.78
-1469.78
-1423.03
-39.3846
-118.412
-198.181
-279.077
-361.324
-444.927
-529.616
-614.809
-699.581
-782.651
-862.404
-936.927
-1004.08
-1061.62
-1107.28
-1138.99
-1154.96
-1153.89
-1135.06
-1098.45
-31.2858
-94.0248
-157.241
-221.169
-285.922
-351.447
-417.487
-483.554
-548.909
-612.56
-673.277
-729.629
-780.037
-822.854
-856.459
-879.363
-890.32
-888.428
-873.216
-844.704
-24.6736
-74.1258
-123.874
-174.054
-224.707
-275.755
-326.965
-377.937
-428.089
-476.657
-522.714
-565.193
-602.931
-634.73
-659.422
-675.948
-683.431
-681.25
-669.097
-647.013
-19.3232
-58.0328
-96.9173
-136.047
-175.423
-214.958
-254.45
-293.576
-331.883
-368.788
-403.595
-435.511
-463.686
-487.249
-505.36
-517.266
-522.352
-520.188
-510.574
-493.561
-15.0305
-45.1269
-75.3193
-105.637
-136.06
-166.5
-196.789
-226.671
-255.794
-283.718
-309.923
-333.822
-354.796
-372.212
-385.47
-394.034
-397.471
-395.486
-387.95
-374.913
-11.614
-34.86
-58.1519
-81.4952
-104.859
-128.162
-151.268
-173.974
-196.012
-217.05
-236.701
-254.535
-270.099
-282.939
-292.622
-298.77
-301.078
-299.345
-293.487
-283.55
-8.91606
-26.7552
-44.6101
-62.4726
-80.3083
-98.0475
-115.579
-132.746
-149.343
-165.124
-179.801
-193.061
-204.573
-214.011
-221.067
-225.471
-227.011
-225.549
-221.031
-213.496
-6.80136
-20.4049
-34.0066
-47.5923
-61.1283
-74.556
-87.7867
-100.7
-113.141
-124.926
-135.843
-145.664
-154.151
-161.068
-166.195
-169.343
-170.363
-169.161
-165.701
-160.018
-5.15586
-15.465
-25.7633
-36.0343
-46.2476
-56.355
-66.2868
-75.9509
-85.2318
-93.993
-102.08
-109.326
-115.56
-120.613
-124.329
-126.573
-127.243
-126.274
-123.643
-119.38
-3.88448
-11.6493
-19.3995
-27.1187
-34.7808
-42.3466
-49.7625
-56.9585
-63.8486
-70.3323
-76.2969
-81.622
-86.1841
-89.8629
-92.5477
-94.1442
-94.5802
-93.8114
-91.8252
-88.6429
-2.90897
-8.72229
-14.5203
-20.288
-26.0034
-31.6358
-37.1438
-42.4749
-47.5654
-52.3416
-56.7218
-60.6191
-63.9451
-66.6141
-68.548
-69.6803
-69.9611
-69.3602
-67.8701
-65.5075
-2.1656
-6.49234
-10.8047
-15.0896
-19.3293
-23.4996
-27.5692
-31.4989
-35.2417
-38.7439
-41.9465
-44.787
-47.2025
-49.132
-50.5204
-51.3213
-51.5
-51.0361
-49.9252
-48.1802
-1.60301
-4.80504
-7.99435
-11.1601
-14.2881
-17.3597
-20.3512
-23.2335
-25.9724
-28.5289
-30.8604
-32.9222
-34.6696
-36.0594
-37.053
-37.6179
-37.73
-37.3757
-36.5524
-35.2701
-1.18022
-3.53725
-5.88353
-8.21025
-10.5062
-12.7573
-14.9457
-17.0501
-19.0453
-20.9034
-22.5937
-24.0844
-25.3437
-26.3414
-27.0502
-27.4474
-27.5167
-27.2486
-26.6419
-25.7041
-0.864847
-2.59172
-4.30978
-6.012
-7.68974
-9.33226
-10.9264
-12.4564
-13.9042
-15.2495
-16.4704
-17.5445
-18.4492
-19.1631
-19.6673
-19.946
-19.9878
-19.7866
-19.3418
-18.6589
-0.631561
-1.89241
-3.14618
-4.38736
-5.60934
-6.80403
-7.9617
-9.07087
-10.1184
-11.0899
-11.9696
-12.7416
-13.39
-13.8998
-14.2578
-14.4531
-14.4777
-14.3276
-14.0026
-13.5068
-0.460777
-1.38052
-2.29466
-3.19893
-4.08826
-4.95662
-5.79682
-6.60049
-7.35816
-8.05939
-8.69311
-9.24794
-9.71269
-10.0769
-10.3311
-10.4679
-10.4819
-10.3703
-10.133
-9.7733
-0.337548
-1.01121
-1.68047
-2.342
-2.99195
-3.6258
-4.23822
-4.82308
-5.37352
-5.88201
-6.34062
-6.74125
-7.07596
-7.33733
-7.51883
-7.61518
-7.62267
-7.53943
-7.3656
-7.10345
-0.250671
-0.750875
-1.24759
-1.73822
-2.2198
-2.68889
-3.1415
-3.57309
-3.97859
-4.35252
-4.68912
-4.98252
-5.22702
-5.41731
-5.54874
-5.61757
-5.6212
-5.55837
-5.42926
-5.23556
-0.191982
-0.575022
-0.955232
-1.33053
-1.69858
-2.05669
-2.40177
-2.73035
-3.03858
-3.32234
-3.57729
-3.79907
-3.98344
-4.12647
-4.22474
-4.27552
-4.27694
-4.2281
-4.1292
-3.98156
-0.155811
-0.466646
-0.775078
-1.07936
-1.37753
-1.66737
-1.94638
-2.21171
-2.46029
-2.6888
-2.89379
-3.07179
-3.21947
-3.33371
-3.41186
-3.45176
-3.45199
-3.41187
-3.3316
-3.21225
-0.138586
-0.41504
-0.689299
-0.959776
-1.2247
-1.48209
-1.72968
-1.96497
-2.18523
-2.38752
-2.56883
-2.7261
-2.8564
-2.95705
-3.02569
-3.06049
-3.06021
-3.02427
-2.95287
-2.84697
)
;

boundaryField
{
    topWall
    {
        type            calculated;
        value           nonuniform List<scalar> 
20
(
-0.138586
-0.41504
-0.689299
-0.959776
-1.2247
-1.48209
-1.72968
-1.96497
-2.18523
-2.38752
-2.56883
-2.7261
-2.8564
-2.95705
-3.02569
-3.06049
-3.06021
-3.02427
-2.95287
-2.84697
)
;
    }
    bottomWall
    {
        type            calculated;
        value           nonuniform List<scalar> 
20
(
-45.4212
-139.264
-242.39
-361.96
-506.76
-688.219
-921.907
-1229.9
-1644.65
-2215.7
-3021.95
-4195.52
-5972.1
-8808.03
-13686.5
-23028.8
-43770.5
-98851.6
-271889
-860566
)
;
    }
    sideWallL
    {
        type            symmetry;
    }
    sideWallR
    {
        type            calculated;
        value           nonuniform List<scalar> 
45
(
-1.31677e+06
-552658
-299972
-190469
-131908
-95924.6
-71830.8
-54802.6
-42331.9
-32972.9
-25826.7
-20301.9
-15992.6
-12610.1
-9943.51
-7835.56
-6166.63
-4844.59
-3797.64
-2969.36
-2315.09
-1799.32
-1393.75
-1075.74
-827.156
-633.516
-483.227
-367.037
-277.575
-208.985
-156.629
-116.845
-86.7575
-64.1116
-47.1518
-34.5162
-25.1539
-18.259
-13.2169
-9.56336
-6.9507
-5.12287
-3.89578
-3.143
-2.78556
)
;
    }
    frontAndBack
    {
        type            empty;
    }
}


// ************************************************************************* //
