/*--------------------------------*- C++ -*----------------------------------*\
  =========                 |
  \\      /  F ield         | OpenFOAM: The Open Source CFD Toolbox
   \\    /   O peration     | Website:  https://openfoam.org
    \\  /    A nd           | Version:  7
     \\/     M anipulation  |
\*---------------------------------------------------------------------------*/
FoamFile
{
    version     2.0;
    format      ascii;
    class       volScalarField;
    location    "29";
    object      gradTy;
}
// * * * * * * * * * * * * * * * * * * * * * * * * * * * * * * * * * * * * * //

dimensions      [0 -1 0 1 0 0 0];

internalField   nonuniform List<scalar> 
900
(
-202447
-202623
-202986
-203561
-204386
-205519
-207042
-209072
-211772
-215380
-220241
-226875
-236092
-249207
-268485
-298108
-346490
-432371
-602257
-982644
-176343
-176503
-176835
-177358
-178106
-179130
-180500
-182312
-184703
-187861
-192052
-197658
-205226
-215555
-229789
-249457
-276036
-308222
-329259
-254199
-154013
-154152
-154437
-154886
-155524
-156389
-157533
-159027
-160962
-163458
-166670
-170790
-176035
-182609
-190550
-199309
-206611
-205610
-178810
-90547.2
-134705
-134817
-135046
-135403
-135906
-136579
-137453
-138567
-139966
-141699
-143810
-146319
-149174
-152159
-154686
-155403
-151441
-137294
-103979
-42016
-117465
-117547
-117714
-117972
-118328
-118795
-119382
-120101
-120954
-121931
-122992
-124038
-124857
-125040
-123824
-119867
-110969
-93931.9
-65206.3
-23636.2
-102065
-102117
-102222
-102380
-102592
-102857
-103169
-103515
-103869
-104178
-104352
-104228
-103538
-101842
-98449.7
-92334.3
-82109.2
-66210.6
-43567.8
-15019.4
-88342.5
-88366.3
-88412.6
-88478.3
-88557.3
-88639.4
-88707.1
-88731.7
-88666.9
-88439.1
-87933.5
-86974.3
-85297.4
-82519.7
-78109.2
-71380.2
-61557.8
-47984.9
-30548.3
-10280.5
-76152.4
-76151.2
-76146.1
-76130.9
-76095.4
-76023.2
-75889.4
-75656.5
-75269.2
-74646.8
-73673
-72183.8
-69953.5
-66683.9
-62003.4
-55492.8
-46761
-35595.7
-22191
-7374.71
-65362.7
-65340.7
-65293.1
-65211.9
-65084.3
-64890.8
-64602.8
-64180.1
-63566
-62682.7
-61425
-59653.9
-57191.9
-53823.5
-49306.5
-43402.9
-35939.2
-26900.6
-16540.6
-5457.41
-55851.7
-55813.5
-55733.1
-55601.8
-55405.6
-55124.1
-54728.5
-54179.3
-53424.1
-52393.5
-50998.9
-49129.9
-46655
-43426.7
-39295.6
-34137.2
-27893.2
-20624.7
-12562.7
-4126.32
-47505.4
-47455.7
-47352.1
-47186
-46943.6
-46605.1
-46143.4
-45522.9
-44697.2
-43608.5
-42185.8
-40345.4
-37994.1
-35035.3
-31382.2
-26977.3
-21818.3
-15987.8
-9673.38
-3167.75
-40216.4
-40159.5
-40041.6
-39854.7
-39585.8
-39217
-38724.1
-38076.4
-37235.1
-36153.7
-34777.6
-33045.8
-30894.4
-28263.1
-25104.8
-21399.4
-17169.6
-12495.6
-7523.48
-2458.52
-33883
-33822.5
-33697.9
-33501.9
-33223
-32845.5
-32349
-31707.6
-30890.3
-29860.9
-28578.6
-27000.3
-25084
-22793.5
-20106.3
-17021.9
-13571.5
-9825.12
-5893.74
-1922.97
-28408.7
-28347.6
-28222.4
-28026.7
-27750.6
-27381.1
-26901.1
-26289.8
-25523
-24573.3
-23411.2
-22007
-20333.9
-18371.8
-16112.4
-13564.8
-10760.7
-7758.02
-4640.47
-1512.27
-23702.2
-23642.9
-23521.8
-23333.3
-23069.6
-22719.7
-22270.1
-21704.4
-21004.1
-20149
-19118.2
-17892
-16454
-14794.1
-12912
-10820.6
-8548.7
-6142.88
-3666.07
-1193.63
-19677.8
-19622
-19508.1
-19332
-19087
-18764.4
-18353.7
-17842.3
-17216.4
-16461.3
-15562.8
-14508
-13287.7
-11897.7
-10341.8
-8633.6
-6798.03
-4871.79
-2902.2
-944.22
-16255.5
-16204.2
-16099.8
-15939
-15716.5
-15425.6
-15058.1
-14604.7
-14055.1
-13399.2
-12627.2
-11731.2
-10706.4
-9552.33
-8274.51
-6885.71
-5406.67
-3866.12
-2299.69
-747.741
-13361.2
-13315
-13221.4
-13077.4
-12879.3
-12621.7
-12298.6
-11903.1
-11427.8
-10865.8
-10210.6
-9457.65
-8604.91
-7653.84
-6610.49
-5486.13
-4297.68
-3067.48
-1822.39
-592.246
-10927
-10886.2
-10803.6
-10677
-10503.4
-10279
-9999.23
-9659.06
-9253.42
-8777.52
-8227.43
-7600.64
-6896.78
-6118.26
-5270.91
-4364.35
-3412.18
-2431.69
-1443.18
-468.808
-8891.16
-8855.65
-8783.85
-8674.17
-8524.37
-8331.58
-8092.5
-7803.59
-7461.36
-7062.69
-6605.22
-6087.83
-5511.1
-4877.77
-4193.09
-3465.08
-2704.57
-1924.89
-1141.4
-370.64
-7197.85
-7167.39
-7105.86
-7012.11
-6884.49
-6720.92
-6519.05
-6276.42
-5990.68
-5659.88
-5282.73
-4858.95
-4389.59
-3877.36
-3326.83
-2744.57
-2139.11
-1520.74
-901.075
-292.509
-5797.28
-5771.47
-5719.4
-5640.24
-5532.79
-5395.58
-5226.95
-5025.25
-4788.95
-4516.87
-4208.41
-3863.79
-3484.25
-3072.27
-2631.74
-2167.95
-1687.6
-1198.59
-709.739
-230.333
-4645.28
-4623.65
-4580.09
-4513.98
-4424.49
-4310.57
-4171.12
-4005
-3811.29
-3589.32
-3338.93
-3060.59
-2755.54
-2426
-2075.16
-1707.27
-1327.56
-942.096
-557.545
-180.897
-3702.99
-3685.06
-3648.99
-3594.35
-3520.56
-3426.89
-3312.61
-3177
-3019.5
-2839.8
-2637.98
-2414.62
-2170.89
-1908.68
-1630.61
-1340.03
-1041.02
-738.218
-436.675
-141.65
-2936.53
-2921.82
-2892.24
-2847.51
-2787.22
-2710.9
-2618.05
-2508.24
-2381.18
-2236.75
-2075.18
-1897.06
-1703.45
-1495.91
-1276.56
-1048.05
-813.521
-576.523
-340.883
-110.555
-2316.57
-2304.61
-2280.58
-2244.29
-2195.46
-2133.79
-2058.97
-1970.75
-1868.99
-1753.73
-1625.22
-1484.04
-1331.1
-1167.69
-995.497
-816.593
-633.4
-448.624
-265.16
-85.9822
-1817.92
-1808.28
-1788.92
-1759.72
-1720.51
-1671.08
-1611.25
-1540.9
-1459.98
-1368.61
-1267.05
-1155.81
-1035.68
-907.679
-773.158
-633.727
-491.244
-347.766
-205.48
-66.6198
-1419.08
-1411.37
-1395.91
-1372.61
-1341.36
-1302.04
-1254.56
-1198.86
-1134.96
-1062.99
-983.224
-896.098
-802.248
-702.512
-597.938
-489.774
-379.441
-268.5
-158.598
-51.4131
-1101.88
-1095.76
-1083.5
-1065.05
-1040.34
-1009.3
-971.887
-928.09
-877.961
-821.639
-759.367
-691.517
-618.605
-541.295
-460.404
-376.892
-291.841
-206.433
-121.904
-39.5131
-851.011
-846.198
-836.556
-822.053
-802.653
-778.323
-749.046
-714.841
-675.772
-631.97
-583.647
-531.112
-474.777
-415.164
-352.906
-288.738
-223.48
-158.023
-93.2953
-30.2366
-653.734
-649.974
-642.444
-631.127
-616.006
-597.067
-574.313
-547.774
-517.518
-483.663
-446.388
-405.942
-362.653
-316.929
-269.254
-220.19
-170.357
-120.422
-71.0813
-23.0349
-499.476
-496.559
-490.72
-481.952
-470.247
-455.604
-438.037
-417.58
-394.296
-368.288
-339.703
-308.742
-275.66
-240.775
-204.455
-167.127
-129.256
-91.3435
-53.9071
-17.4678
-379.537
-377.29
-372.794
-366.047
-357.047
-345.802
-332.328
-316.659
-298.852
-278.993
-257.201
-233.635
-208.494
-182.02
-154.495
-126.239
-97.602
-68.9568
-40.6886
-13.1835
-286.806
-285.088
-281.65
-276.493
-269.62
-261.041
-250.773
-238.848
-225.314
-210.241
-193.725
-175.891
-156.89
-136.909
-116.16
-94.8816
-73.3367
-51.8015
-30.5613
-9.90142
-215.512
-214.206
-211.595
-207.681
-202.467
-195.965
-188.191
-179.172
-168.95
-157.58
-145.137
-131.718
-117.44
-102.443
-86.8855
-70.9477
-54.8231
-38.7166
-22.8385
-7.39886
-160.997
-160.012
-158.042
-155.091
-151.163
-146.268
-140.42
-133.644
-125.972
-117.448
-108.131
-98.095
-87.4285
-76.2363
-64.6379
-52.7661
-40.7641
-28.7827
-16.9766
-5.49947
-119.527
-118.789
-117.314
-115.105
-112.166
-108.506
-104.138
-99.0814
-93.3613
-87.0132
-80.0819
-72.6232
-64.7042
-56.4029
-47.8079
-39.0171
-30.136
-21.275
-12.5469
-4.06431
-88.1266
-87.578
-86.4818
-84.8406
-82.6589
-79.9437
-76.7056
-72.9597
-68.7264
-64.0328
-58.9129
-53.4087
-47.5701
-41.4549
-35.1285
-28.6626
-22.1341
-15.6236
-9.21314
-2.98425
-64.4348
-64.0307
-63.2236
-62.0156
-60.4105
-58.4141
-56.0349
-53.2846
-50.179
-46.7385
-42.9889
-38.9612
-34.6923
-30.2247
-25.6061
-20.8886
-16.128
-11.3826
-6.71167
-2.1739
-46.586
-46.292
-45.7048
-44.8263
-43.6595
-42.2089
-40.4812
-38.4855
-36.2335
-33.7405
-31.0256
-28.1116
-25.0253
-21.7975
-18.4628
-15.0585
-11.6249
-8.20352
-4.83675
-1.56656
-33.1072
-32.8971
-32.4776
-31.85
-31.0168
-29.9816
-28.7491
-27.3262
-25.7217
-23.9467
-22.0148
-19.9427
-17.7494
-15.457
-13.0899
-10.6746
-8.23952
-5.81392
-3.42762
-1.11012
-22.8314
-22.6858
-22.3952
-21.9606
-21.3837
-20.6672
-19.8146
-18.8307
-17.7219
-16.4958
-15.1622
-13.7325
-12.22
-10.6399
-9.00914
-7.34586
-5.66949
-4.00013
-2.35816
-0.76373
-14.8247
-14.7298
-14.5404
-14.2573
-13.8816
-13.415
-12.8601
-12.2199
-11.4987
-10.7016
-9.83497
-8.90628
-7.92424
-6.89872
-5.84064
-4.76184
-3.67484
-2.59262
-1.52834
-0.494967
-8.32383
-8.27044
-8.16385
-8.0045
-7.79309
-7.53062
-7.21849
-6.85853
-6.45311
-6.00517
-5.5183
-4.99671
-4.44532
-3.86967
-3.2759
-2.67063
-2.06087
-1.45389
-0.857035
-0.277555
-2.68166
-2.66443
-2.63005
-2.57866
-2.51047
-2.42583
-2.32518
-2.20913
-2.07844
-1.93407
-1.77717
-1.60911
-1.43147
-1.24604
-1.0548
-0.859878
-0.663531
-0.468093
-0.275925
-0.0893593
)
;

boundaryField
{
    topWall
    {
        type            calculated;
        value           uniform 0;
    }
    bottomWall
    {
        type            calculated;
        value           nonuniform List<scalar> 
20
(
-216427
-216609
-216984
-217578
-218432
-219605
-221185
-223293
-226104
-229872
-234967
-241959
-251749
-265848
-286981
-320594
-379097
-495676
-774503
-1.58323e+06
)
;
    }
    sideWallL
    {
        type            symmetry;
    }
    sideWallR
    {
        type            calculated;
        value           nonuniform List<scalar> 
45
(
-982644
-254199
-90547.2
-42016
-23636.2
-15019.4
-10280.5
-7374.71
-5457.41
-4126.32
-3167.75
-2458.52
-1922.97
-1512.27
-1193.63
-944.22
-747.741
-592.246
-468.808
-370.64
-292.509
-230.333
-180.897
-141.65
-110.555
-85.9822
-66.6198
-51.4131
-39.5131
-30.2366
-23.0349
-17.4678
-13.1835
-9.90142
-7.39886
-5.49947
-4.06431
-2.98425
-2.1739
-1.56656
-1.11012
-0.76373
-0.494967
-0.277555
-0.0893593
)
;
    }
    frontAndBack
    {
        type            empty;
    }
}


// ************************************************************************* //
