/*--------------------------------*- C++ -*----------------------------------*\
  =========                 |
  \\      /  F ield         | OpenFOAM: The Open Source CFD Toolbox
   \\    /   O peration     | Website:  https://openfoam.org
    \\  /    A nd           | Version:  7
     \\/     M anipulation  |
\*---------------------------------------------------------------------------*/
FoamFile
{
    version     2.0;
    format      ascii;
    class       volScalarField;
    location    "29";
    object      rhoc;
}
// * * * * * * * * * * * * * * * * * * * * * * * * * * * * * * * * * * * * * //

dimensions      [1 -3 0 0 0 0 0];

internalField   nonuniform List<scalar> 
900
(
3.23023e-07
3.2243e-07
3.21206e-07
3.19273e-07
3.16506e-07
3.12726e-07
3.07685e-07
3.01048e-07
2.92367e-07
2.81058e-07
2.66357e-07
2.47296e-07
2.22693e-07
1.9124e-07
1.5184e-07
1.04679e-07
5.40969e-08
1.38792e-08
4.17128e-10
1.31844e-15
3.64209e-09
3.62e-09
3.57471e-09
3.50404e-09
3.40467e-09
3.27222e-09
3.10141e-09
2.88638e-09
2.62157e-09
2.30316e-09
1.93171e-09
1.51616e-09
1.07912e-09
6.61197e-10
3.18425e-10
1.01604e-10
1.51568e-11
4.82499e-13
4.56949e-16
5.20549e-23
4.18338e-11
4.13784e-11
4.04523e-11
3.90273e-11
3.7065e-11
3.45244e-11
3.13738e-11
2.76091e-11
2.32811e-11
1.853e-11
1.36185e-11
8.94467e-12
4.99328e-12
2.18778e-12
6.59628e-13
1.09086e-13
6.5735e-15
6.70601e-17
2.71502e-20
4.51388e-26
5.07592e-13
4.99476e-13
4.83119e-13
4.58331e-13
4.24963e-13
3.83096e-13
3.33304e-13
2.76994e-13
2.16737e-13
1.56467e-13
1.01248e-13
5.63189e-14
2.53145e-14
8.37516e-15
1.76587e-15
1.89184e-16
7.19048e-18
5.54658e-20
4.00645e-23
1.88667e-27
6.84266e-15
6.69891e-15
6.41183e-15
5.98348e-15
5.41988e-15
4.73447e-15
3.95229e-15
3.11366e-15
2.27536e-15
1.50618e-15
8.73877e-16
4.24385e-16
1.61624e-16
4.39861e-17
7.48748e-18
6.59454e-19
2.31247e-20
2.32306e-22
5.02474e-25
3.63558e-28
1.07772e-16
1.05017e-16
9.95609e-17
9.15384e-17
8.12053e-17
6.89963e-17
5.55753e-17
4.18523e-17
2.89208e-17
1.78827e-17
9.56556e-18
4.22926e-18
1.45365e-18
3.57748e-19
5.6546e-20
4.99651e-21
2.09683e-22
3.59355e-24
2.50536e-26
1.39841e-28
2.0788e-18
2.01781e-18
1.89796e-18
1.72396e-18
1.50391e-18
1.25019e-18
9.79788e-19
7.13662e-19
4.74117e-19
2.80304e-19
1.42837e-19
6.01998e-20
1.99065e-20
4.83448e-21
7.96211e-22
8.13306e-23
4.74083e-24
1.52485e-25
3.10801e-27
7.68868e-29
5.11989e-20
4.95571e-20
4.63502e-20
4.1741e-20
3.59948e-20
2.94905e-20
2.27151e-20
1.62238e-20
1.05558e-20
6.11729e-21
3.06988e-21
1.2885e-21
4.33778e-22
1.11584e-22
2.08122e-23
2.68113e-24
2.32281e-25
1.40336e-26
7.18683e-28
5.18385e-29
1.66671e-21
1.61071e-21
1.50178e-21
1.3463e-21
1.15431e-21
9.39558e-22
7.18923e-22
5.10656e-22
3.31443e-22
1.92798e-22
9.81937e-23
4.26079e-23
1.52748e-23
4.38039e-24
9.75481e-25
1.65635e-25
2.16681e-26
2.3495e-27
2.56666e-28
3.96005e-29
7.36149e-23
7.11195e-23
6.62768e-23
5.93903e-23
5.09263e-23
4.15081e-23
3.1879e-23
2.28196e-23
1.50232e-23
8.95397e-24
4.74452e-24
2.19089e-24
8.63709e-25
2.8531e-25
7.80195e-26
1.77105e-26
3.44681e-27
6.26061e-28
1.24336e-28
3.27861e-29
4.48813e-24
4.33998e-24
4.0526e-24
3.64414e-24
3.14218e-24
2.58306e-24
2.00958e-24
1.46632e-24
9.92841e-25
6.16322e-25
3.46183e-25
1.73614e-25
7.68145e-26
2.97463e-26
1.00873e-26
3.04364e-27
8.51645e-28
2.38599e-28
7.45269e-29
2.8645e-29
3.81072e-25
3.69235e-25
3.46249e-25
3.13504e-25
2.73107e-25
2.27824e-25
1.80913e-25
1.35795e-25
9.55802e-26
6.25431e-26
3.77186e-26
2.08045e-26
1.04413e-26
4.76771e-27
1.99761e-27
7.84884e-28
3.00814e-28
1.19044e-28
5.18075e-29
2.59715e-29
4.51467e-26
4.38729e-26
4.13929e-26
3.78443e-26
3.3435e-26
2.844e-26
2.31866e-26
1.80255e-26
1.32883e-26
9.23787e-27
6.02662e-27
3.67757e-27
2.09866e-27
1.12528e-27
5.73686e-28
2.83986e-28
1.4071e-28
7.23544e-29
3.99312e-29
2.41699e-29
7.4388e-27
7.25533e-27
6.8969e-27
6.38081e-27
5.73347e-27
4.99018e-27
4.19374e-27
3.39137e-27
2.62988e-27
1.94968e-27
1.37902e-27
9.30383e-28
6.00274e-28
3.72775e-28
2.25349e-28
1.34789e-28
8.13918e-29
5.06644e-29
3.30867e-29
2.29177e-29
1.69071e-27
1.6558e-27
1.58732e-27
1.48799e-27
1.36205e-27
1.21523e-27
1.05468e-27
8.88531e-28
7.25292e-28
5.72907e-28
4.37797e-28
3.2407e-28
2.33161e-28
1.64024e-28
1.13803e-28
7.87353e-29
5.49866e-29
3.92231e-29
2.88541e-29
2.20277e-29
5.21538e-28
5.12931e-28
4.95971e-28
4.71187e-28
4.39408e-28
4.01785e-28
3.59794e-28
3.15184e-28
2.69877e-28
2.25801e-28
1.84704e-28
1.47952e-28
1.16402e-28
9.03526e-29
6.95999e-29
5.35753e-29
4.15122e-29
3.26012e-29
2.6099e-29
2.13846e-29
2.12095e-28
2.09416e-28
2.04117e-28
1.96316e-28
1.86207e-28
1.74065e-28
1.60258e-28
1.45236e-28
1.29523e-28
1.13678e-28
9.8255e-29
8.37499e-29
7.05539e-29
5.89231e-29
4.89685e-29
4.06703e-29
3.39081e-29
2.84998e-29
2.42372e-29
2.09145e-29
1.08961e-28
1.07943e-28
1.05921e-28
1.02926e-28
9.90088e-29
9.42453e-29
8.87406e-29
8.26309e-29
7.60815e-29
6.92806e-29
6.24282e-29
5.57214e-29
4.93383e-29
4.34239e-29
3.80804e-29
3.3364e-29
2.9288e-29
2.58302e-29
2.29439e-29
2.05679e-29
6.72954e-29
6.68393e-29
6.59306e-29
6.45777e-29
6.27951e-29
6.06056e-29
5.8043e-29
5.51534e-29
5.19958e-29
4.86414e-29
4.51707e-29
4.16693e-29
3.82216e-29
3.49057e-29
3.17873e-29
2.89161e-29
2.63247e-29
2.40282e-29
2.20273e-29
2.03109e-29
4.76699e-29
4.74372e-29
4.69728e-29
4.62785e-29
4.53584e-29
4.42199e-29
4.28744e-29
4.1339e-29
3.96369e-29
3.77977e-29
3.58568e-29
3.38543e-29
3.18327e-29
2.98342e-29
2.78985e-29
2.60603e-29
2.43471e-29
2.27791e-29
2.13682e-29
2.01195e-29
3.7267e-29
3.7136e-29
3.68741e-29
3.64814e-29
3.59589e-29
3.53087e-29
3.4535e-29
3.36444e-29
3.26468e-29
3.15554e-29
3.03871e-29
2.91619e-29
2.79023e-29
2.6632e-29
2.5375e-29
2.41539e-29
2.29886e-29
2.18962e-29
2.08893e-29
1.99768e-29
3.12413e-29
3.11619e-29
3.10029e-29
3.0764e-29
3.04453e-29
3.00473e-29
2.95713e-29
2.902e-29
2.83979e-29
2.77114e-29
2.6969e-29
2.61813e-29
2.53609e-29
2.45215e-29
2.36779e-29
2.28446e-29
2.20355e-29
2.12634e-29
2.05388e-29
1.98702e-29
2.75141e-29
2.74632e-29
2.73613e-29
2.72081e-29
2.70032e-29
2.67467e-29
2.6439e-29
2.60811e-29
2.56752e-29
2.52245e-29
2.47337e-29
2.42087e-29
2.36568e-29
2.30863e-29
2.25064e-29
2.19267e-29
2.13567e-29
2.08054e-29
2.0281e-29
1.97905e-29
2.50948e-29
2.50609e-29
2.4993e-29
2.48908e-29
2.47539e-29
2.45824e-29
2.43761e-29
2.41356e-29
2.38618e-29
2.35567e-29
2.32228e-29
2.28637e-29
2.24836e-29
2.2088e-29
2.16825e-29
2.12737e-29
2.08679e-29
2.04717e-29
2.00909e-29
1.97311e-29
2.34684e-29
2.34451e-29
2.33985e-29
2.33284e-29
2.32345e-29
2.31166e-29
2.29747e-29
2.28089e-29
2.262e-29
2.24088e-29
2.2177e-29
2.19266e-29
2.16606e-29
2.13822e-29
2.10954e-29
2.08043e-29
2.05135e-29
2.02275e-29
1.99506e-29
1.96869e-29
2.23468e-29
2.23305e-29
2.22979e-29
2.22488e-29
2.21831e-29
2.21005e-29
2.20011e-29
2.18849e-29
2.17523e-29
2.16038e-29
2.14406e-29
2.12638e-29
2.10755e-29
2.08777e-29
2.06731e-29
2.04646e-29
2.02553e-29
2.00483e-29
1.98469e-29
1.9654e-29
2.15593e-29
2.15478e-29
2.15246e-29
2.14898e-29
2.14432e-29
2.13846e-29
2.13141e-29
2.12316e-29
2.11375e-29
2.1032e-29
2.09159e-29
2.079e-29
2.06556e-29
2.05142e-29
2.03676e-29
2.02177e-29
2.00667e-29
1.99168e-29
1.97704e-29
1.96295e-29
2.09994e-29
2.09911e-29
2.09746e-29
2.09496e-29
2.09163e-29
2.08743e-29
2.08239e-29
2.07649e-29
2.06976e-29
2.06221e-29
2.05391e-29
2.04489e-29
2.03526e-29
2.02512e-29
2.01457e-29
2.00378e-29
1.99288e-29
1.98203e-29
1.97141e-29
1.96115e-29
2.05979e-29
2.0592e-29
2.058e-29
2.05621e-29
2.05381e-29
2.05079e-29
2.04717e-29
2.04293e-29
2.03809e-29
2.03268e-29
2.02671e-29
2.02024e-29
2.01332e-29
2.00602e-29
1.99844e-29
1.99066e-29
1.9828e-29
1.97496e-29
1.96726e-29
1.95982e-29
2.03085e-29
2.03042e-29
2.02956e-29
2.02827e-29
2.02653e-29
2.02436e-29
2.02175e-29
2.0187e-29
2.01521e-29
2.01132e-29
2.00703e-29
2.00237e-29
1.9974e-29
1.99216e-29
1.9867e-29
1.9811e-29
1.97544e-29
1.96979e-29
1.96423e-29
1.95884e-29
2.00994e-29
2.00963e-29
2.009e-29
2.00807e-29
2.00682e-29
2.00525e-29
2.00336e-29
2.00116e-29
1.99866e-29
1.99585e-29
1.99277e-29
1.98943e-29
1.98585e-29
1.98209e-29
1.97817e-29
1.97415e-29
1.97008e-29
1.96601e-29
1.96201e-29
1.95812e-29
1.9948e-29
1.99458e-29
1.99413e-29
1.99345e-29
1.99255e-29
1.99142e-29
1.99006e-29
1.98848e-29
1.98668e-29
1.98466e-29
1.98245e-29
1.98005e-29
1.97749e-29
1.97479e-29
1.97198e-29
1.9691e-29
1.96618e-29
1.96326e-29
1.96039e-29
1.9576e-29
1.98386e-29
1.9837e-29
1.98337e-29
1.98289e-29
1.98224e-29
1.98142e-29
1.98045e-29
1.97931e-29
1.97802e-29
1.97657e-29
1.97499e-29
1.97327e-29
1.97144e-29
1.9695e-29
1.9675e-29
1.96544e-29
1.96335e-29
1.96127e-29
1.95922e-29
1.95722e-29
1.97596e-29
1.97584e-29
1.97561e-29
1.97526e-29
1.97479e-29
1.97421e-29
1.97351e-29
1.97269e-29
1.97177e-29
1.97074e-29
1.9696e-29
1.96838e-29
1.96707e-29
1.96569e-29
1.96426e-29
1.9628e-29
1.96131e-29
1.95983e-29
1.95837e-29
1.95695e-29
1.97027e-29
1.97018e-29
1.97002e-29
1.96977e-29
1.96943e-29
1.96902e-29
1.96852e-29
1.96793e-29
1.96727e-29
1.96654e-29
1.96573e-29
1.96486e-29
1.96393e-29
1.96295e-29
1.96194e-29
1.9609e-29
1.95985e-29
1.95879e-29
1.95776e-29
1.95675e-29
1.96618e-29
1.96612e-29
1.966e-29
1.96583e-29
1.96559e-29
1.96529e-29
1.96493e-29
1.96452e-29
1.96405e-29
1.96353e-29
1.96296e-29
1.96234e-29
1.96168e-29
1.96099e-29
1.96027e-29
1.95954e-29
1.9588e-29
1.95805e-29
1.95732e-29
1.95661e-29
1.96326e-29
1.96322e-29
1.96314e-29
1.96301e-29
1.96284e-29
1.96263e-29
1.96238e-29
1.96208e-29
1.96175e-29
1.96138e-29
1.96098e-29
1.96054e-29
1.96008e-29
1.95959e-29
1.95909e-29
1.95857e-29
1.95805e-29
1.95752e-29
1.95701e-29
1.95651e-29
1.96118e-29
1.96115e-29
1.96109e-29
1.961e-29
1.96088e-29
1.96074e-29
1.96056e-29
1.96035e-29
1.96012e-29
1.95986e-29
1.95957e-29
1.95927e-29
1.95894e-29
1.9586e-29
1.95824e-29
1.95788e-29
1.95751e-29
1.95715e-29
1.95679e-29
1.95644e-29
1.95971e-29
1.95969e-29
1.95965e-29
1.95959e-29
1.9595e-29
1.9594e-29
1.95927e-29
1.95913e-29
1.95896e-29
1.95878e-29
1.95858e-29
1.95836e-29
1.95814e-29
1.9579e-29
1.95765e-29
1.95739e-29
1.95714e-29
1.95688e-29
1.95663e-29
1.95639e-29
1.95868e-29
1.95867e-29
1.95864e-29
1.95859e-29
1.95853e-29
1.95846e-29
1.95837e-29
1.95827e-29
1.95815e-29
1.95802e-29
1.95788e-29
1.95773e-29
1.95757e-29
1.95741e-29
1.95723e-29
1.95705e-29
1.95688e-29
1.9567e-29
1.95652e-29
1.95635e-29
1.95796e-29
1.95795e-29
1.95793e-29
1.9579e-29
1.95786e-29
1.95781e-29
1.95774e-29
1.95767e-29
1.95759e-29
1.9575e-29
1.9574e-29
1.9573e-29
1.95718e-29
1.95707e-29
1.95694e-29
1.95682e-29
1.95669e-29
1.95657e-29
1.95645e-29
1.95633e-29
1.95747e-29
1.95747e-29
1.95745e-29
1.95743e-29
1.9574e-29
1.95736e-29
1.95732e-29
1.95727e-29
1.95721e-29
1.95714e-29
1.95707e-29
1.957e-29
1.95692e-29
1.95683e-29
1.95675e-29
1.95666e-29
1.95657e-29
1.95648e-29
1.95639e-29
1.95631e-29
1.95715e-29
1.95715e-29
1.95714e-29
1.95712e-29
1.9571e-29
1.95707e-29
1.95704e-29
1.957e-29
1.95696e-29
1.95691e-29
1.95686e-29
1.9568e-29
1.95674e-29
1.95668e-29
1.95662e-29
1.95655e-29
1.95649e-29
1.95642e-29
1.95636e-29
1.9563e-29
1.95696e-29
1.95696e-29
1.95695e-29
1.95693e-29
1.95692e-29
1.95689e-29
1.95687e-29
1.95684e-29
1.95681e-29
1.95677e-29
1.95673e-29
1.95669e-29
1.95664e-29
1.95659e-29
1.95654e-29
1.95649e-29
1.95644e-29
1.95639e-29
1.95634e-29
1.95629e-29
1.95687e-29
1.95687e-29
1.95686e-29
1.95685e-29
1.95683e-29
1.95681e-29
1.95679e-29
1.95676e-29
1.95674e-29
1.9567e-29
1.95667e-29
1.95663e-29
1.95659e-29
1.95655e-29
1.95651e-29
1.95646e-29
1.95642e-29
1.95637e-29
1.95633e-29
1.95629e-29
)
;

boundaryField
{
    topWall
    {
        type            zeroGradient;
    }
    bottomWall
    {
        type            zeroGradient;
    }
    sideWallL
    {
        type            symmetry;
    }
    sideWallR
    {
        type            zeroGradient;
    }
    frontAndBack
    {
        type            empty;
    }
}


// ************************************************************************* //
