/*--------------------------------*- C++ -*----------------------------------*\
  =========                 |
  \\      /  F ield         | OpenFOAM: The Open Source CFD Toolbox
   \\    /   O peration     | Website:  https://openfoam.org
    \\  /    A nd           | Version:  7
     \\/     M anipulation  |
\*---------------------------------------------------------------------------*/
FoamFile
{
    version     2.0;
    format      ascii;
    class       volScalarField;
    location    "29";
    object      rhog;
}
// * * * * * * * * * * * * * * * * * * * * * * * * * * * * * * * * * * * * * //

dimensions      [1 -3 0 0 0 0 0];

internalField   nonuniform List<scalar> 
900
(
0.0132907
0.0132761
0.0132461
0.0131985
0.0131303
0.0130368
0.0129114
0.0127452
0.0125257
0.012236
0.0118527
0.0113433
0.0106624
0.00974679
0.00850984
0.00684187
0.00465211
0.00210839
0.00027616
1.6932e-07
0.000981953
0.000978469
0.000971303
0.000960046
0.000944063
0.000922465
0.000894078
0.00085742
0.000810695
0.000751845
0.000678737
0.00058959
0.000483888
0.000364066
0.000238174
0.00012266
4.05658e-05
5.4344e-06
9.1517e-08
6.81159e-12
7.43521e-05
7.38772e-05
7.29051e-05
7.13913e-05
6.92693e-05
6.64524e-05
6.2838e-05
5.83163e-05
5.27896e-05
4.62041e-05
3.86034e-05
3.02059e-05
2.14954e-05
1.32782e-05
6.591e-06
2.30019e-06
4.42975e-07
2.97788e-08
2.89944e-10
9.65925e-14
5.75213e-06
5.69786e-06
5.5874e-06
5.41705e-06
5.18168e-06
4.87538e-06
4.4926e-06
4.03008e-06
3.48968e-06
2.88235e-06
2.2327e-06
1.58254e-06
9.89692e-07
5.16811e-07
2.06907e-07
5.54938e-08
8.03787e-09
4.4794e-10
5.93194e-12
1.38085e-14
4.67332e-07
4.61506e-07
4.49716e-07
4.31718e-07
4.07218e-07
3.75976e-07
3.37967e-07
2.93601e-07
2.44003e-07
1.91295e-07
1.38751e-07
9.06038e-08
5.12438e-08
2.37513e-08
8.33088e-09
1.97272e-09
2.68922e-10
1.72069e-11
4.26768e-13
4.96287e-15
4.11024e-08
4.04752e-08
3.92134e-08
3.73061e-08
3.47467e-08
3.15455e-08
2.77474e-08
2.34528e-08
1.8838e-08
1.41666e-08
9.77587e-09
6.02456e-09
3.19637e-09
1.38969e-09
4.63671e-10
1.09098e-10
1.63627e-11
1.41783e-12
6.93826e-14
2.72132e-15
4.02938e-09
3.95845e-09
3.81651e-09
3.60386e-09
3.32214e-09
2.97573e-09
2.57354e-09
2.13077e-09
1.6701e-09
1.22117e-09
8.17209e-10
4.88277e-10
2.52343e-10
1.08379e-10
3.68446e-11
9.38058e-12
1.69497e-12
2.11271e-13
1.93505e-14
1.86178e-15
4.52021e-10
4.43281e-10
4.25869e-10
3.99976e-10
3.66032e-10
3.24865e-10
2.77876e-10
2.27186e-10
1.75663e-10
1.26732e-10
8.38753e-11
4.98665e-11
2.5964e-11
1.14925e-11
4.18589e-12
1.21588e-12
2.7604e-13
4.96368e-14
7.81214e-15
1.44742e-15
5.93205e-11
5.8113e-11
5.57153e-11
5.21699e-11
4.75585e-11
4.2021e-11
3.57745e-11
2.91245e-11
2.24592e-11
1.62142e-11
1.08049e-11
6.53646e-12
3.52252e-12
1.65727e-12
6.67787e-13
2.27394e-13
6.55544e-14
1.65819e-14
4.09135e-15
1.2178e-15
9.26187e-12
9.07074e-12
8.69211e-12
8.13433e-12
7.41244e-12
6.55074e-12
5.58498e-12
4.56334e-12
3.54459e-12
2.59237e-12
1.76543e-12
1.10578e-12
6.28826e-13
3.20746e-13
1.45453e-13
5.85877e-14
2.1278e-14
7.28593e-15
2.57853e-15
1.07847e-15
1.7399e-12
1.70475e-12
1.6352e-12
1.53293e-12
1.40086e-12
1.24358e-12
1.06758e-12
8.81443e-13
6.95371e-13
5.20269e-13
3.66161e-13
2.40368e-13
1.4602e-13
8.16101e-14
4.19053e-14
1.99082e-14
8.93935e-15
3.96114e-15
1.85394e-15
9.88549e-16
3.95554e-13
3.87985e-13
3.73013e-13
3.51002e-13
3.22575e-13
2.88685e-13
2.50674e-13
2.10276e-13
1.69552e-13
1.30704e-13
9.5791e-14
6.64004e-14
4.33657e-14
2.66521e-14
1.54687e-14
8.57279e-15
4.63731e-15
2.53514e-15
1.46353e-15
9.27932e-16
1.08952e-13
1.07042e-13
1.03261e-13
9.76952e-14
9.04929e-14
8.18768e-14
7.21589e-14
6.17432e-14
5.11107e-14
4.07827e-14
3.12624e-14
2.29641e-14
1.61496e-14
1.08933e-14
7.09014e-15
4.50551e-15
2.84738e-15
1.83356e-15
1.23433e-15
8.85775e-16
3.62695e-14
3.57066e-14
3.45911e-14
3.29457e-14
3.08091e-14
2.82397e-14
2.53195e-14
2.21558e-14
1.88774e-14
1.56273e-14
1.25488e-14
9.76823e-15
7.37795e-15
5.42497e-15
3.90826e-15
2.78637e-15
1.99237e-15
1.45072e-15
1.09101e-15
8.55782e-16
1.45132e-14
1.43212e-14
1.39402e-14
1.33767e-14
1.26416e-14
1.17522e-14
1.07326e-14
9.61469e-15
8.43774e-15
7.24641e-15
6.08726e-15
5.00403e-15
4.0326e-15
3.19687e-15
2.50667e-15
1.95837e-15
1.53785e-15
1.2248e-15
9.971e-16
8.34086e-16
6.91806e-15
6.84319e-15
6.69433e-15
6.47347e-15
6.18409e-15
5.83161e-15
5.42388e-15
4.97147e-15
4.48773e-15
3.98826e-15
3.48999e-15
3.00978e-15
2.56273e-15
2.16064e-15
1.81097e-15
1.51645e-15
1.27551e-15
1.08338e-15
9.33382e-16
8.18199e-16
3.87231e-15
3.83939e-15
3.77383e-15
3.67626e-15
3.54784e-15
3.3904e-15
3.20672e-15
3.00063e-15
2.77708e-15
2.5421e-15
2.30244e-15
2.06521e-15
1.83722e-15
1.62443e-15
1.43139e-15
1.26097e-15
1.11426e-15
9.90819e-16
8.89008e-16
8.06463e-16
2.4933e-15
2.47724e-15
2.4452e-15
2.39738e-15
2.33417e-15
2.25623e-15
2.16459e-15
2.06075e-15
1.94669e-15
1.82493e-15
1.6984e-15
1.57032e-15
1.44396e-15
1.32242e-15
1.20838e-15
1.10389e-15
1.01028e-15
9.28165e-16
8.57499e-16
7.9774e-16
1.80096e-15
1.7924e-15
1.77529e-15
1.7497e-15
1.71575e-15
1.67368e-15
1.6239e-15
1.567e-15
1.50385e-15
1.43557e-15
1.36351e-15
1.28923e-15
1.21439e-15
1.14068e-15
1.06965e-15
1.00265e-15
9.4075e-16
8.8467e-16
8.34801e-16
7.91229e-16
1.42224e-15
1.41733e-15
1.40751e-15
1.39279e-15
1.37319e-15
1.34882e-15
1.31981e-15
1.28644e-15
1.24908e-15
1.20827e-15
1.16468e-15
1.11909e-15
1.0724e-15
1.02555e-15
9.79464e-16
9.35014e-16
8.92958e-16
8.53901e-16
8.18279e-16
7.86356e-16
1.20017e-15
1.19718e-15
1.1912e-15
1.18221e-15
1.17023e-15
1.15527e-15
1.1374e-15
1.11673e-15
1.09344e-15
1.0678e-15
1.04014e-15
1.0109e-15
9.80572e-16
9.497e-16
9.18852e-16
8.88587e-16
8.59427e-16
8.31828e-16
8.06161e-16
7.82705e-16
1.06255e-15
1.06064e-15
1.05682e-15
1.05107e-15
1.0434e-15
1.0338e-15
1.02229e-15
1.00893e-15
9.93802e-16
9.77045e-16
9.58844e-16
9.3944e-16
9.19121e-16
8.98214e-16
8.77075e-16
8.56066e-16
8.35542e-16
8.15833e-16
7.97229e-16
7.79968e-16
9.73485e-16
9.72222e-16
9.69691e-16
9.65884e-16
9.60791e-16
9.54409e-16
9.46743e-16
9.37817e-16
9.27675e-16
9.16392e-16
9.04074e-16
8.90861e-16
8.76927e-16
8.62477e-16
8.47735e-16
8.32941e-16
8.18338e-16
8.04161e-16
7.90624e-16
7.77917e-16
9.13899e-16
9.13039e-16
9.11315e-16
9.0872e-16
9.05247e-16
9.0089e-16
8.95649e-16
8.89535e-16
8.82572e-16
8.74802e-16
8.66288e-16
8.57116e-16
8.47395e-16
8.37255e-16
8.26843e-16
8.16319e-16
8.0585e-16
7.95601e-16
7.85731e-16
7.76382e-16
8.73011e-16
8.72413e-16
8.71214e-16
8.69408e-16
8.66991e-16
8.63956e-16
8.60304e-16
8.56037e-16
8.51172e-16
8.45731e-16
8.39756e-16
8.333e-16
8.26433e-16
8.1924e-16
8.11819e-16
8.0428e-16
7.96737e-16
7.89307e-16
7.82105e-16
7.75236e-16
8.4442e-16
8.43997e-16
8.4315e-16
8.41875e-16
8.40167e-16
8.38023e-16
8.35441e-16
8.32424e-16
8.28981e-16
8.25126e-16
8.20887e-16
8.16297e-16
8.11403e-16
8.06263e-16
8.00943e-16
7.95517e-16
7.90066e-16
7.84673e-16
7.79419e-16
7.74382e-16
8.2415e-16
8.23848e-16
8.23243e-16
8.22333e-16
8.21114e-16
8.19584e-16
8.17741e-16
8.15588e-16
8.13129e-16
8.10376e-16
8.07345e-16
8.0406e-16
8.00553e-16
7.96862e-16
7.93034e-16
7.8912e-16
7.85175e-16
7.8126e-16
7.77432e-16
7.73747e-16
8.0964e-16
8.09423e-16
8.08988e-16
8.08333e-16
8.07457e-16
8.06357e-16
8.05034e-16
8.03488e-16
8.01723e-16
7.99746e-16
7.97569e-16
7.95208e-16
7.92686e-16
7.90029e-16
7.87269e-16
7.84443e-16
7.81588e-16
7.78748e-16
7.75964e-16
7.73277e-16
7.99185e-16
7.99028e-16
7.98714e-16
7.98241e-16
7.97609e-16
7.96816e-16
7.95862e-16
7.94747e-16
7.93476e-16
7.92052e-16
7.90485e-16
7.88785e-16
7.86969e-16
7.85054e-16
7.83064e-16
7.81023e-16
7.7896e-16
7.76903e-16
7.74883e-16
7.72929e-16
7.91622e-16
7.91508e-16
7.91281e-16
7.90939e-16
7.90482e-16
7.89909e-16
7.8922e-16
7.88416e-16
7.87499e-16
7.86472e-16
7.85343e-16
7.84119e-16
7.8281e-16
7.81431e-16
7.79997e-16
7.78525e-16
7.77036e-16
7.7555e-16
7.74089e-16
7.72674e-16
7.8614e-16
7.86058e-16
7.85894e-16
7.85646e-16
7.85316e-16
7.84901e-16
7.84404e-16
7.83824e-16
7.83162e-16
7.82423e-16
7.81609e-16
7.80728e-16
7.79787e-16
7.78794e-16
7.77763e-16
7.76704e-16
7.75632e-16
7.74561e-16
7.73508e-16
7.72486e-16
7.82166e-16
7.82107e-16
7.81988e-16
7.81809e-16
7.8157e-16
7.81271e-16
7.80912e-16
7.80494e-16
7.80018e-16
7.79486e-16
7.78901e-16
7.78268e-16
7.77592e-16
7.76879e-16
7.76139e-16
7.75379e-16
7.74609e-16
7.73841e-16
7.73084e-16
7.72349e-16
7.79287e-16
7.79244e-16
7.79158e-16
7.79029e-16
7.78857e-16
7.78642e-16
7.78383e-16
7.78083e-16
7.77741e-16
7.77359e-16
7.76939e-16
7.76485e-16
7.76001e-16
7.75491e-16
7.74961e-16
7.74418e-16
7.73867e-16
7.73317e-16
7.72776e-16
7.72249e-16
7.77205e-16
7.77174e-16
7.77113e-16
7.7702e-16
7.76896e-16
7.76742e-16
7.76556e-16
7.76341e-16
7.76096e-16
7.75822e-16
7.75522e-16
7.75198e-16
7.74852e-16
7.74488e-16
7.7411e-16
7.73723e-16
7.73331e-16
7.72939e-16
7.72552e-16
7.72177e-16
7.75704e-16
7.75682e-16
7.75638e-16
7.75571e-16
7.75483e-16
7.75372e-16
7.7524e-16
7.75085e-16
7.74911e-16
7.74716e-16
7.74502e-16
7.74271e-16
7.74025e-16
7.73766e-16
7.73498e-16
7.73223e-16
7.72944e-16
7.72666e-16
7.72392e-16
7.72125e-16
7.74625e-16
7.7461e-16
7.74578e-16
7.74531e-16
7.74467e-16
7.74388e-16
7.74294e-16
7.74184e-16
7.7406e-16
7.73921e-16
7.7377e-16
7.73606e-16
7.73432e-16
7.73249e-16
7.73058e-16
7.72864e-16
7.72667e-16
7.7247e-16
7.72276e-16
7.72088e-16
7.73853e-16
7.73842e-16
7.73819e-16
7.73786e-16
7.73741e-16
7.73685e-16
7.73618e-16
7.7354e-16
7.73452e-16
7.73354e-16
7.73247e-16
7.73131e-16
7.73008e-16
7.72879e-16
7.72745e-16
7.72608e-16
7.72469e-16
7.7233e-16
7.72194e-16
7.72061e-16
7.73303e-16
7.73295e-16
7.73279e-16
7.73255e-16
7.73224e-16
7.73184e-16
7.73137e-16
7.73082e-16
7.73019e-16
7.7295e-16
7.72875e-16
7.72793e-16
7.72707e-16
7.72616e-16
7.72522e-16
7.72425e-16
7.72328e-16
7.72231e-16
7.72135e-16
7.72042e-16
7.72913e-16
7.72908e-16
7.72897e-16
7.7288e-16
7.72857e-16
7.72829e-16
7.72796e-16
7.72757e-16
7.72713e-16
7.72665e-16
7.72612e-16
7.72555e-16
7.72494e-16
7.7243e-16
7.72364e-16
7.72297e-16
7.72229e-16
7.72161e-16
7.72094e-16
7.72029e-16
7.72639e-16
7.72635e-16
7.72628e-16
7.72616e-16
7.726e-16
7.7258e-16
7.72557e-16
7.72529e-16
7.72499e-16
7.72465e-16
7.72427e-16
7.72387e-16
7.72345e-16
7.723e-16
7.72254e-16
7.72207e-16
7.72159e-16
7.72112e-16
7.72065e-16
7.72019e-16
7.72449e-16
7.72446e-16
7.72441e-16
7.72432e-16
7.72421e-16
7.72407e-16
7.7239e-16
7.72371e-16
7.7235e-16
7.72326e-16
7.72299e-16
7.72271e-16
7.72241e-16
7.7221e-16
7.72177e-16
7.72144e-16
7.72111e-16
7.72078e-16
7.72045e-16
7.72013e-16
7.72319e-16
7.72317e-16
7.72313e-16
7.72307e-16
7.72299e-16
7.72289e-16
7.72277e-16
7.72264e-16
7.72248e-16
7.72231e-16
7.72212e-16
7.72192e-16
7.72171e-16
7.72148e-16
7.72125e-16
7.72102e-16
7.72078e-16
7.72054e-16
7.72031e-16
7.72008e-16
7.72234e-16
7.72232e-16
7.72229e-16
7.72225e-16
7.72219e-16
7.72212e-16
7.72203e-16
7.72193e-16
7.72181e-16
7.72169e-16
7.72155e-16
7.7214e-16
7.72125e-16
7.72108e-16
7.72091e-16
7.72074e-16
7.72057e-16
7.72039e-16
7.72022e-16
7.72006e-16
7.72182e-16
7.72181e-16
7.72179e-16
7.72175e-16
7.72171e-16
7.72165e-16
7.72158e-16
7.7215e-16
7.72141e-16
7.72131e-16
7.72121e-16
7.72109e-16
7.72097e-16
7.72084e-16
7.72071e-16
7.72057e-16
7.72044e-16
7.7203e-16
7.72017e-16
7.72004e-16
7.72158e-16
7.72157e-16
7.72155e-16
7.72152e-16
7.72148e-16
7.72143e-16
7.72137e-16
7.7213e-16
7.72122e-16
7.72114e-16
7.72104e-16
7.72094e-16
7.72084e-16
7.72073e-16
7.72061e-16
7.72049e-16
7.72038e-16
7.72026e-16
7.72014e-16
7.72003e-16
)
;

boundaryField
{
    topWall
    {
        type            calculated;
        value           uniform 0;
    }
    bottomWall
    {
        type            zeroGradient;
    }
    sideWallL
    {
        type            symmetry;
    }
    sideWallR
    {
        type            calculated;
        value           uniform 0;
    }
    frontAndBack
    {
        type            empty;
    }
}


// ************************************************************************* //
