/*--------------------------------*- C++ -*----------------------------------*\
  =========                 |
  \\      /  F ield         | OpenFOAM: The Open Source CFD Toolbox
   \\    /   O peration     | Website:  https://openfoam.org
    \\  /    A nd           | Version:  7
     \\/     M anipulation  |
\*---------------------------------------------------------------------------*/
FoamFile
{
    version     2.0;
    format      ascii;
    class       volScalarField;
    location    "29";
    object      rhois;
}
// * * * * * * * * * * * * * * * * * * * * * * * * * * * * * * * * * * * * * //

dimensions      [1 -3 0 0 0 0 0];

internalField   nonuniform List<scalar> 
900
(
0.0534356
0.0533949
0.0533107
0.0531774
0.0529856
0.0527218
0.0523668
0.0518937
0.0512652
0.050429
0.049311
0.0478052
0.0457561
0.0429316
0.0389777
0.0333508
0.0252829
0.0142782
0.00326592
1.52675e-05
0.00803647
0.00801614
0.00797423
0.00790816
0.00781389
0.00768563
0.00751553
0.00729327
0.00700561
0.00663601
0.00616462
0.00556917
0.00482833
0.00393
0.00288986
0.00178589
0.000800001
0.00018603
9.65786e-06
1.04723e-08
0.00121062
0.00120509
0.00119373
0.00117595
0.00115082
0.00111708
0.00107315
0.00101709
0.0009468
0.000860167
0.000755613
0.000632983
0.000495016
0.000349378
0.000210438
9.81995e-05
2.98053e-05
4.23409e-06
1.50796e-07
5.17875e-10
0.000185529
0.000184277
0.000181717
0.000177739
0.000172178
0.000164825
0.00015544
0.000143779
0.000129647
0.000112986
9.40042e-05
7.33493e-05
5.22792e-05
3.27073e-05
1.68884e-05
6.53132e-06
1.62133e-06
2.03207e-07
9.25038e-09
1.34574e-10
2.9569e-05
2.93055e-05
2.87693e-05
2.79423e-05
2.67997e-05
2.53124e-05
2.34528e-05
2.12028e-05
1.8567e-05
1.55899e-05
1.23766e-05
9.10887e-06
6.04416e-06
3.47477e-06
1.63467e-06
5.8008e-07
1.3877e-07
1.94537e-08
1.42438e-09
6.68009e-11
5.01258e-06
4.95799e-06
4.84738e-06
4.67814e-06
4.4469e-06
4.15044e-06
3.78694e-06
3.35788e-06
2.87047e-06
2.3404e-06
1.79389e-06
1.26768e-06
8.04491e-07
4.42618e-07
2.01511e-07
7.15415e-08
1.84826e-08
3.26634e-09
3.97957e-10
4.43391e-11
9.23493e-07
9.11917e-07
8.88561e-07
8.53076e-07
8.05085e-07
7.44385e-07
6.71227e-07
5.86687e-07
4.93079e-07
3.94305e-07
2.95946e-07
2.04827e-07
1.27809e-07
6.98993e-08
3.23868e-08
1.22426e-08
3.64904e-09
8.48843e-10
1.64603e-10
3.42033e-11
1.88531e-07
1.85944e-07
1.80742e-07
1.72887e-07
1.62355e-07
1.49181e-07
1.33524e-07
1.15727e-07
9.63955e-08
7.6427e-08
5.69872e-08
3.93739e-08
2.47628e-08
1.38873e-08
6.79384e-09
2.84252e-09
1.00782e-09
3.08709e-10
8.87465e-11
2.87666e-11
4.33532e-08
4.27296e-08
4.14796e-08
3.96009e-08
3.70986e-08
3.39952e-08
3.03435e-08
2.62402e-08
2.18375e-08
1.73454e-08
1.30199e-08
9.12955e-09
5.9032e-09
3.47286e-09
1.83679e-09
8.67736e-10
3.68551e-10
1.45374e-10
5.74116e-11
2.55237e-11
1.13733e-08
1.12085e-08
1.08789e-08
1.03852e-08
9.73054e-09
8.92317e-09
7.97904e-09
6.92493e-09
5.80048e-09
4.65798e-09
3.5588e-09
2.56543e-09
1.73019e-09
1.0836e-09
6.27489e-10
3.36761e-10
1.69952e-10
8.34187e-11
4.21438e-11
2.345e-11
3.43462e-09
3.38635e-09
3.2899e-09
3.14573e-09
2.95508e-09
2.7206e-09
2.44714e-09
2.14241e-09
1.81743e-09
1.48638e-09
1.16564e-09
8.71772e-10
6.18867e-10
4.15821e-10
2.64659e-10
1.60698e-10
9.46268e-11
5.55709e-11
3.37863e-11
2.20591e-11
1.20049e-09
1.18471e-09
1.15322e-09
1.10618e-09
1.04403e-09
9.67636e-10
8.78512e-10
7.79021e-10
6.72485e-10
5.63138e-10
4.55859e-10
3.55644e-10
2.66901e-10
1.9272e-10
1.34369e-10
9.12281e-11
6.11851e-11
4.13553e-11
2.88126e-11
2.10943e-11
4.86698e-10
4.80945e-10
4.69459e-10
4.52301e-10
4.29617e-10
4.01696e-10
3.69041e-10
3.32427e-10
2.92941e-10
2.51975e-10
2.11146e-10
1.7215e-10
1.36554e-10
1.05574e-10
7.99042e-11
5.96502e-11
4.43953e-11
3.3371e-11
2.56667e-11
2.04086e-11
2.28568e-10
2.26233e-10
2.2157e-10
2.14596e-10
2.05363e-10
1.93969e-10
1.80589e-10
1.65497e-10
1.49076e-10
1.31828e-10
1.14344e-10
9.72618e-11
8.12011e-11
6.66878e-11
5.40889e-11
4.35754e-11
3.51233e-11
2.85524e-11
2.35856e-11
1.99126e-11
1.23627e-10
1.22579e-10
1.20485e-10
1.1735e-10
1.13189e-10
1.08039e-10
1.01961e-10
9.50587e-11
8.74786e-11
7.9415e-11
7.11037e-11
6.28074e-11
5.47935e-11
4.73065e-11
4.05421e-11
3.46272e-11
2.96133e-11
2.54823e-11
2.21622e-11
1.95492e-11
7.61403e-11
7.56253e-11
7.4595e-11
7.30502e-11
7.09952e-11
6.84423e-11
6.5415e-11
6.19534e-11
5.81171e-11
5.39873e-11
4.9665e-11
4.5267e-11
4.09174e-11
3.67371e-11
3.28324e-11
2.92859e-11
2.61496e-11
2.34446e-11
2.11643e-11
1.92805e-11
5.2511e-11
5.22366e-11
5.16871e-11
5.0862e-11
4.97619e-11
4.83905e-11
4.67567e-11
4.48768e-11
4.27763e-11
4.04909e-11
3.8067e-11
3.556e-11
3.3031e-11
3.0543e-11
2.81557e-11
2.59204e-11
2.38766e-11
2.20499e-11
2.04515e-11
1.90805e-11
3.97503e-11
3.95936e-11
3.92795e-11
3.88072e-11
3.81763e-11
3.73874e-11
3.64438e-11
3.53522e-11
3.41237e-11
3.27753e-11
3.13291e-11
2.98131e-11
2.8259e-11
2.67013e-11
2.51742e-11
2.37098e-11
2.23356e-11
2.10727e-11
1.99354e-11
1.89309e-11
3.2369e-11
3.22741e-11
3.20839e-11
3.17976e-11
3.14143e-11
3.0934e-11
3.03575e-11
2.96877e-11
2.89295e-11
2.80913e-11
2.71844e-11
2.62234e-11
2.52257e-11
2.42108e-11
2.31991e-11
2.22109e-11
2.12646e-11
2.03761e-11
1.9558e-11
1.88187e-11
2.7852e-11
2.77918e-11
2.7671e-11
2.74889e-11
2.7245e-11
2.69387e-11
2.65702e-11
2.61404e-11
2.56519e-11
2.51088e-11
2.45171e-11
2.3885e-11
2.32222e-11
2.25403e-11
2.18519e-11
2.11697e-11
2.05064e-11
1.98732e-11
1.928e-11
1.87345e-11
2.49597e-11
2.492e-11
2.48403e-11
2.47201e-11
2.45589e-11
2.43563e-11
2.4112e-11
2.38265e-11
2.35009e-11
2.31373e-11
2.27393e-11
2.23113e-11
2.18593e-11
2.13903e-11
2.09122e-11
2.04333e-11
1.99621e-11
1.95066e-11
1.90743e-11
1.86712e-11
2.30403e-11
2.30133e-11
2.29591e-11
2.28774e-11
2.27677e-11
2.26298e-11
2.24632e-11
2.22683e-11
2.20455e-11
2.1796e-11
2.15218e-11
2.12256e-11
2.09112e-11
2.05829e-11
2.02458e-11
1.99054e-11
1.95675e-11
1.92378e-11
1.89215e-11
1.86236e-11
2.17305e-11
2.17117e-11
2.16741e-11
2.16172e-11
2.15409e-11
2.14449e-11
2.13289e-11
2.1193e-11
2.10375e-11
2.0863e-11
2.06708e-11
2.04625e-11
2.02406e-11
2.00077e-11
1.97674e-11
1.95233e-11
1.92794e-11
1.90397e-11
1.8808e-11
1.85879e-11
2.08176e-11
2.08043e-11
2.07777e-11
2.07374e-11
2.06835e-11
2.06155e-11
2.05335e-11
2.04373e-11
2.03271e-11
2.02034e-11
2.00668e-11
1.99186e-11
1.97603e-11
1.95936e-11
1.9421e-11
1.92449e-11
1.90681e-11
1.88933e-11
1.87235e-11
1.85611e-11
2.01711e-11
2.01616e-11
2.01425e-11
2.01137e-11
2.0075e-11
2.00264e-11
1.99677e-11
1.98988e-11
1.98199e-11
1.97313e-11
1.96335e-11
1.95271e-11
1.94133e-11
1.92933e-11
1.91686e-11
1.90411e-11
1.89126e-11
1.87851e-11
1.86606e-11
1.85411e-11
1.97079e-11
1.9701e-11
1.96872e-11
1.96664e-11
1.96385e-11
1.96034e-11
1.9561e-11
1.95114e-11
1.94545e-11
1.93906e-11
1.93201e-11
1.92433e-11
1.91611e-11
1.90744e-11
1.89841e-11
1.88916e-11
1.87981e-11
1.87051e-11
1.8614e-11
1.85262e-11
1.93733e-11
1.93683e-11
1.93583e-11
1.93432e-11
1.93229e-11
1.92974e-11
1.92667e-11
1.92308e-11
1.91896e-11
1.91433e-11
1.90923e-11
1.90367e-11
1.89772e-11
1.89144e-11
1.88489e-11
1.87817e-11
1.87137e-11
1.86459e-11
1.85794e-11
1.85151e-11
1.91303e-11
1.91267e-11
1.91194e-11
1.91084e-11
1.90936e-11
1.90751e-11
1.90528e-11
1.90266e-11
1.89967e-11
1.89632e-11
1.89262e-11
1.88859e-11
1.88428e-11
1.87972e-11
1.87498e-11
1.8701e-11
1.86516e-11
1.86023e-11
1.85538e-11
1.85069e-11
1.89533e-11
1.89507e-11
1.89453e-11
1.89373e-11
1.89266e-11
1.89131e-11
1.88968e-11
1.88778e-11
1.88561e-11
1.88318e-11
1.88049e-11
1.87757e-11
1.87445e-11
1.87115e-11
1.86771e-11
1.86418e-11
1.86059e-11
1.85702e-11
1.85349e-11
1.85008e-11
1.88242e-11
1.88223e-11
1.88184e-11
1.88126e-11
1.88047e-11
1.87949e-11
1.87831e-11
1.87693e-11
1.87535e-11
1.87359e-11
1.87164e-11
1.86953e-11
1.86727e-11
1.86488e-11
1.86239e-11
1.85984e-11
1.85725e-11
1.85466e-11
1.85211e-11
1.84963e-11
1.87301e-11
1.87286e-11
1.87258e-11
1.87216e-11
1.87159e-11
1.87087e-11
1.87001e-11
1.86901e-11
1.86787e-11
1.86659e-11
1.86519e-11
1.86366e-11
1.86203e-11
1.8603e-11
1.85851e-11
1.85667e-11
1.8548e-11
1.85293e-11
1.85109e-11
1.8493e-11
1.86614e-11
1.86604e-11
1.86584e-11
1.86553e-11
1.86511e-11
1.8646e-11
1.86397e-11
1.86325e-11
1.86243e-11
1.8615e-11
1.86049e-11
1.85939e-11
1.85821e-11
1.85697e-11
1.85568e-11
1.85436e-11
1.85302e-11
1.85167e-11
1.85035e-11
1.84906e-11
1.86116e-11
1.86108e-11
1.86093e-11
1.86071e-11
1.86041e-11
1.86004e-11
1.85959e-11
1.85906e-11
1.85847e-11
1.85781e-11
1.85708e-11
1.85629e-11
1.85544e-11
1.85455e-11
1.85363e-11
1.85268e-11
1.85172e-11
1.85076e-11
1.84981e-11
1.84889e-11
1.85754e-11
1.85748e-11
1.85738e-11
1.85722e-11
1.857e-11
1.85673e-11
1.85641e-11
1.85603e-11
1.85561e-11
1.85513e-11
1.85461e-11
1.85404e-11
1.85344e-11
1.8528e-11
1.85214e-11
1.85147e-11
1.85078e-11
1.8501e-11
1.84942e-11
1.84876e-11
1.85492e-11
1.85489e-11
1.85481e-11
1.85469e-11
1.85454e-11
1.85435e-11
1.85411e-11
1.85385e-11
1.85354e-11
1.8532e-11
1.85283e-11
1.85242e-11
1.85199e-11
1.85154e-11
1.85107e-11
1.85059e-11
1.85011e-11
1.84962e-11
1.84914e-11
1.84867e-11
1.85304e-11
1.85302e-11
1.85296e-11
1.85288e-11
1.85277e-11
1.85263e-11
1.85246e-11
1.85227e-11
1.85206e-11
1.85181e-11
1.85155e-11
1.85126e-11
1.85096e-11
1.85064e-11
1.85031e-11
1.84996e-11
1.84962e-11
1.84928e-11
1.84894e-11
1.84861e-11
1.85169e-11
1.85167e-11
1.85164e-11
1.85158e-11
1.8515e-11
1.8514e-11
1.85128e-11
1.85115e-11
1.85099e-11
1.85082e-11
1.85063e-11
1.85043e-11
1.85022e-11
1.84999e-11
1.84976e-11
1.84952e-11
1.84927e-11
1.84903e-11
1.84879e-11
1.84856e-11
1.85073e-11
1.85072e-11
1.85069e-11
1.85065e-11
1.85059e-11
1.85052e-11
1.85044e-11
1.85035e-11
1.85024e-11
1.85012e-11
1.84998e-11
1.84984e-11
1.84969e-11
1.84953e-11
1.84937e-11
1.8492e-11
1.84903e-11
1.84886e-11
1.84869e-11
1.84853e-11
1.85005e-11
1.85004e-11
1.85002e-11
1.84999e-11
1.84995e-11
1.8499e-11
1.84985e-11
1.84978e-11
1.8497e-11
1.84962e-11
1.84952e-11
1.84942e-11
1.84932e-11
1.84921e-11
1.84909e-11
1.84897e-11
1.84885e-11
1.84873e-11
1.84862e-11
1.8485e-11
1.84957e-11
1.84957e-11
1.84955e-11
1.84953e-11
1.8495e-11
1.84947e-11
1.84943e-11
1.84938e-11
1.84933e-11
1.84927e-11
1.8492e-11
1.84913e-11
1.84906e-11
1.84898e-11
1.8489e-11
1.84882e-11
1.84873e-11
1.84865e-11
1.84857e-11
1.84849e-11
1.84924e-11
1.84923e-11
1.84922e-11
1.84921e-11
1.84919e-11
1.84917e-11
1.84914e-11
1.8491e-11
1.84907e-11
1.84902e-11
1.84898e-11
1.84893e-11
1.84888e-11
1.84882e-11
1.84876e-11
1.84871e-11
1.84865e-11
1.84859e-11
1.84853e-11
1.84848e-11
1.84901e-11
1.84901e-11
1.849e-11
1.84899e-11
1.84898e-11
1.84896e-11
1.84894e-11
1.84891e-11
1.84889e-11
1.84886e-11
1.84882e-11
1.84879e-11
1.84875e-11
1.84871e-11
1.84867e-11
1.84863e-11
1.84859e-11
1.84855e-11
1.84851e-11
1.84847e-11
1.84886e-11
1.84886e-11
1.84885e-11
1.84885e-11
1.84884e-11
1.84882e-11
1.84881e-11
1.84879e-11
1.84877e-11
1.84875e-11
1.84872e-11
1.8487e-11
1.84867e-11
1.84864e-11
1.84861e-11
1.84858e-11
1.84855e-11
1.84852e-11
1.84849e-11
1.84846e-11
1.84877e-11
1.84877e-11
1.84877e-11
1.84876e-11
1.84875e-11
1.84874e-11
1.84873e-11
1.84872e-11
1.8487e-11
1.84868e-11
1.84866e-11
1.84864e-11
1.84862e-11
1.8486e-11
1.84858e-11
1.84855e-11
1.84853e-11
1.84851e-11
1.84848e-11
1.84846e-11
1.84873e-11
1.84873e-11
1.84872e-11
1.84872e-11
1.84871e-11
1.8487e-11
1.84869e-11
1.84868e-11
1.84867e-11
1.84865e-11
1.84864e-11
1.84862e-11
1.8486e-11
1.84858e-11
1.84856e-11
1.84854e-11
1.84852e-11
1.8485e-11
1.84848e-11
1.84846e-11
)
;

boundaryField
{
    topWall
    {
        type            zeroGradient;
    }
    bottomWall
    {
        type            zeroGradient;
    }
    sideWallL
    {
        type            symmetry;
    }
    sideWallR
    {
        type            zeroGradient;
    }
    frontAndBack
    {
        type            empty;
    }
}


// ************************************************************************* //
