/*--------------------------------*- C++ -*----------------------------------*\
  =========                 |
  \\      /  F ield         | OpenFOAM: The Open Source CFD Toolbox
   \\    /   O peration     | Website:  https://openfoam.org
    \\  /    A nd           | Version:  7
     \\/     M anipulation  |
\*---------------------------------------------------------------------------*/
FoamFile
{
    version     2.0;
    format      ascii;
    class       volScalarField;
    location    "29";
    object      rhot2;
}
// * * * * * * * * * * * * * * * * * * * * * * * * * * * * * * * * * * * * * //

dimensions      [1 -3 0 0 0 0 0];

internalField   nonuniform List<scalar> 
900
(
0.000222018
0.000221573
0.000220655
0.000219206
0.000217135
0.000214308
0.000210543
0.000205597
0.000199145
0.000190766
0.000179924
0.000165948
0.000148055
0.000125439
9.75799e-05
6.50847e-05
3.17076e-05
7.191e-06
1.55611e-07
1.32113e-13
1.69127e-06
1.68001e-06
1.65695e-06
1.62103e-06
1.57065e-06
1.50374e-06
1.41785e-06
1.31042e-06
1.1792e-06
1.02316e-06
8.43781e-07
6.47069e-07
4.45777e-07
2.60582e-07
1.1695e-07
3.33883e-08
4.12535e-09
9.23372e-11
4.10919e-14
6.65441e-22
1.28267e-08
1.26727e-08
1.23601e-08
1.18807e-08
1.12236e-08
1.03784e-08
9.3393e-09
8.11194e-09
6.72236e-09
5.22747e-09
3.72328e-09
2.34287e-09
1.23222e-09
4.95987e-10
1.32052e-10
1.80667e-11
8.03866e-13
4.90108e-15
7.80858e-19
2.20877e-25
1.00927e-10
9.91392e-11
9.55467e-11
9.01281e-11
8.28853e-11
7.38865e-11
6.3325e-11
5.15876e-11
3.93135e-11
2.74033e-11
1.69203e-11
8.83419e-12
3.64083e-12
1.0673e-12
1.89414e-13
1.57753e-14
4.1061e-16
1.76401e-18
5.07188e-22
5.75363e-27
8.72086e-13
8.51703e-13
8.11151e-13
7.51035e-13
6.72695e-13
5.78688e-13
4.73308e-13
3.62953e-13
2.55993e-13
1.61728e-13
8.82195e-14
3.94634e-14
1.34576e-14
3.15152e-15
4.36091e-16
2.87518e-17
6.69233e-19
3.75063e-21
3.55922e-24
8.50064e-28
8.76882e-15
8.51836e-15
8.02482e-15
7.30502e-15
6.38909e-15
5.32482e-15
4.18075e-15
3.04466e-15
2.01401e-15
1.17649e-15
5.84314e-16
2.34422e-16
7.08953e-17
1.47261e-17
1.85661e-18
1.2119e-19
3.38914e-21
3.38471e-23
1.16843e-25
2.77353e-28
1.08442e-16
1.04874e-16
9.79024e-17
8.7879e-17
7.53837e-17
6.1257e-17
4.6591e-17
3.26399e-17
2.06209e-17
1.14276e-17
5.3584e-18
2.02898e-18
5.84401e-19
1.18754e-19
1.55363e-20
1.17969e-21
4.70558e-23
9.38406e-25
1.06513e-26
1.36841e-28
1.73364e-18
1.67108e-18
1.54963e-18
1.37699e-18
1.1652e-18
9.30705e-19
6.93434e-19
4.7449e-19
2.92269e-19
1.57986e-19
7.2587e-20
2.72486e-20
7.96739e-21
1.71612e-21
2.5619e-22
2.50122e-23
1.54069e-24
6.16724e-26
1.954e-27
8.56785e-29
3.7357e-20
3.59391e-20
3.32e-20
2.93366e-20
2.46477e-20
1.95253e-20
1.44226e-20
9.79315e-21
6.00421e-21
3.25141e-21
1.51434e-21
5.87937e-22
1.83658e-22
4.4453e-23
8.04638e-24
1.06337e-24
1.03194e-25
7.90054e-27
5.85553e-28
6.21403e-29
1.12026e-21
1.07721e-21
9.94237e-22
8.77693e-22
7.36995e-22
5.8419e-22
4.3282e-22
2.96021e-22
1.84078e-22
1.02213e-22
4.96354e-23
2.05978e-23
7.1307e-24
2.01364e-24
4.5655e-25
8.3078e-26
1.25104e-26
1.70103e-27
2.48412e-28
4.95725e-29
4.7765e-23
4.59694e-23
4.25115e-23
3.76569e-23
3.17969e-23
2.54253e-23
1.9091e-23
1.33225e-23
8.53544e-24
4.95092e-24
2.56051e-24
1.16232e-24
4.56442e-25
1.53449e-25
4.40886e-26
1.09849e-26
2.47504e-27
5.47549e-28
1.34789e-28
4.21599e-29
2.92844e-24
2.82431e-24
2.62351e-24
2.34088e-24
1.9982e-24
1.62292e-24
1.24562e-24
8.96124e-25
5.98695e-25
3.67712e-25
2.05493e-25
1.03508e-25
4.66718e-26
1.8807e-26
6.82343e-27
2.27814e-27
7.29929e-28
2.39445e-28
8.70127e-29
3.74762e-29
2.58849e-25
2.5043e-25
2.34149e-25
2.11115e-25
1.8296e-25
1.51755e-25
1.1984e-25
8.95597e-26
6.29227e-26
4.12837e-26
2.51403e-26
1.41463e-26
7.3456e-27
3.53379e-27
1.59377e-27
6.89148e-28
2.95693e-28
1.31559e-28
6.34943e-29
3.43687e-29
3.28536e-26
3.19104e-26
3.00791e-26
2.74699e-26
2.4246e-26
2.06176e-26
1.68273e-26
1.31269e-26
9.74625e-27
6.86036e-27
4.56501e-27
2.86879e-27
1.70615e-27
9.66518e-28
5.27906e-28
2.83224e-28
1.52929e-28
8.53861e-29
5.053e-29
3.22333e-29
5.9285e-27
5.78403e-27
5.5022e-27
5.09729e-27
4.59075e-27
4.01069e-27
3.39047e-27
2.76615e-27
2.17277e-27
1.64013e-27
1.1889e-27
8.28413e-28
5.56767e-28
3.63294e-28
2.32464e-28
1.47829e-28
9.48983e-29
6.24819e-29
4.27736e-29
3.07277e-29
1.49443e-27
1.46479e-27
1.40667e-27
1.32243e-27
1.21568e-27
1.09125e-27
9.55041e-28
8.13723e-28
6.74183e-28
5.42841e-28
4.24929e-28
3.23923e-28
2.41274e-28
1.76532e-28
1.27795e-28
9.23434e-29
6.72488e-29
4.98212e-29
3.78474e-29
2.96463e-29
5.11169e-28
5.03248e-28
4.87641e-28
4.6483e-28
4.35563e-28
4.00871e-28
3.62058e-28
3.2066e-28
2.78356e-28
2.36838e-28
1.97655e-28
1.62059e-28
1.3089e-28
1.04535e-28
8.29556e-29
6.57794e-29
5.24293e-29
4.22447e-29
3.45787e-29
2.88588e-29
2.27577e-28
2.24916e-28
2.19651e-28
2.11897e-28
2.0184e-28
1.89743e-28
1.75951e-28
1.60889e-28
1.45047e-28
1.28953e-28
1.13132e-28
9.80681e-29
8.41559e-29
7.16762e-29
6.07811e-29
5.15012e-29
4.37667e-29
3.74384e-29
3.23389e-29
2.82799e-29
1.25485e-28
1.24405e-28
1.2226e-28
1.19081e-28
1.14921e-28
1.09857e-28
1.03995e-28
9.74699e-29
9.04477e-29
8.31166e-29
7.56782e-29
6.83341e-29
6.12706e-29
5.46455e-29
4.85775e-29
4.31414e-29
3.83693e-29
3.42559e-29
3.07674e-29
2.78513e-29
8.15441e-29
8.10344e-29
8.00192e-29
7.85077e-29
7.65158e-29
7.40683e-29
7.12012e-29
6.79633e-29
6.4417e-29
6.06373e-29
5.67095e-29
5.27246e-29
4.87742e-29
4.49441e-29
4.13092e-29
3.79288e-29
3.48448e-29
3.20811e-29
2.96456e-29
2.75325e-29
5.9816e-29
5.95459e-29
5.90067e-29
5.82011e-29
5.71338e-29
5.58134e-29
5.4253e-29
5.24716e-29
5.0495e-29
4.83559e-29
4.60932e-29
4.37513e-29
4.13773e-29
3.90188e-29
3.67211e-29
3.45245e-29
3.24625e-29
3.05603e-29
2.88348e-29
2.72947e-29
4.7881e-29
4.77247e-29
4.74123e-29
4.69443e-29
4.6322e-29
4.55483e-29
4.46282e-29
4.35694e-29
4.23836e-29
4.10859e-29
3.96956e-29
3.82355e-29
3.67311e-29
3.52096e-29
3.36986e-29
3.22245e-29
3.08111e-29
2.94787e-29
2.82435e-29
2.71172e-29
4.07903e-29
4.06938e-29
4.05007e-29
4.02109e-29
3.98245e-29
3.93424e-29
3.87665e-29
3.81003e-29
3.7349e-29
3.65204e-29
3.56245e-29
3.46737e-29
3.36825e-29
3.26671e-29
3.16444e-29
3.06316e-29
2.96452e-29
2.87003e-29
2.78099e-29
2.69845e-29
3.63262e-29
3.62637e-29
3.61384e-29
3.59503e-29
3.5699e-29
3.53847e-29
3.50082e-29
3.45709e-29
3.40756e-29
3.35263e-29
3.29286e-29
3.22895e-29
3.16176e-29
3.09229e-29
3.02161e-29
2.95084e-29
2.88113e-29
2.81354e-29
2.74906e-29
2.68855e-29
3.33934e-29
3.33514e-29
3.32673e-29
3.31408e-29
3.29718e-29
3.27601e-29
3.25059e-29
3.22101e-29
3.18739e-29
3.14997e-29
3.10907e-29
3.06512e-29
3.01864e-29
2.97026e-29
2.92068e-29
2.87064e-29
2.82093e-29
2.77231e-29
2.7255e-29
2.68116e-29
3.14057e-29
3.13768e-29
3.13189e-29
3.12318e-29
3.11153e-29
3.09692e-29
3.07937e-29
3.0589e-29
3.03561e-29
3.00962e-29
2.98113e-29
2.9504e-29
2.91778e-29
2.88367e-29
2.84853e-29
2.81287e-29
2.77722e-29
2.74213e-29
2.70811e-29
2.67566e-29
3.00281e-29
3.00078e-29
2.99672e-29
2.99061e-29
2.98244e-29
2.9722e-29
2.95988e-29
2.9455e-29
2.92912e-29
2.91082e-29
2.89073e-29
2.86901e-29
2.84588e-29
2.82163e-29
2.79656e-29
2.77101e-29
2.74537e-29
2.72e-29
2.69528e-29
2.67158e-29
2.90579e-29
2.90435e-29
2.90147e-29
2.89714e-29
2.89134e-29
2.88407e-29
2.87533e-29
2.86513e-29
2.8535e-29
2.84049e-29
2.8262e-29
2.81073e-29
2.79424e-29
2.7769e-29
2.75894e-29
2.74059e-29
2.7221e-29
2.70376e-29
2.68582e-29
2.66856e-29
2.83672e-29
2.83569e-29
2.83363e-29
2.83053e-29
2.82638e-29
2.82119e-29
2.81494e-29
2.80765e-29
2.79934e-29
2.79005e-29
2.77983e-29
2.76876e-29
2.75695e-29
2.74453e-29
2.73163e-29
2.71843e-29
2.70511e-29
2.69186e-29
2.67887e-29
2.66633e-29
2.78718e-29
2.78644e-29
2.78496e-29
2.78274e-29
2.77976e-29
2.77603e-29
2.77155e-29
2.76632e-29
2.76036e-29
2.7537e-29
2.74637e-29
2.73844e-29
2.72997e-29
2.72105e-29
2.71179e-29
2.7023e-29
2.69271e-29
2.68315e-29
2.67377e-29
2.66469e-29
2.75151e-29
2.75097e-29
2.74991e-29
2.7483e-29
2.74616e-29
2.74348e-29
2.74026e-29
2.7365e-29
2.73222e-29
2.72744e-29
2.72219e-29
2.7165e-29
2.71042e-29
2.70402e-29
2.69738e-29
2.69056e-29
2.68367e-29
2.6768e-29
2.67003e-29
2.66348e-29
2.72576e-29
2.72538e-29
2.72461e-29
2.72345e-29
2.72191e-29
2.71998e-29
2.71767e-29
2.71497e-29
2.7119e-29
2.70847e-29
2.7047e-29
2.70062e-29
2.69627e-29
2.69168e-29
2.68692e-29
2.68204e-29
2.6771e-29
2.67217e-29
2.66731e-29
2.6626e-29
2.70717e-29
2.7069e-29
2.70634e-29
2.70551e-29
2.7044e-29
2.70302e-29
2.70135e-29
2.69942e-29
2.69722e-29
2.69476e-29
2.69206e-29
2.68915e-29
2.68603e-29
2.68276e-29
2.67936e-29
2.67587e-29
2.67233e-29
2.66881e-29
2.66534e-29
2.66197e-29
2.69376e-29
2.69357e-29
2.69317e-29
2.69257e-29
2.69178e-29
2.69078e-29
2.68959e-29
2.68821e-29
2.68663e-29
2.68488e-29
2.68295e-29
2.68087e-29
2.67865e-29
2.67632e-29
2.67389e-29
2.67141e-29
2.66889e-29
2.66638e-29
2.66391e-29
2.6615e-29
2.68411e-29
2.68397e-29
2.68369e-29
2.68326e-29
2.68269e-29
2.68198e-29
2.68113e-29
2.68014e-29
2.67902e-29
2.67777e-29
2.6764e-29
2.67492e-29
2.67334e-29
2.67168e-29
2.66996e-29
2.6682e-29
2.66641e-29
2.66463e-29
2.66288e-29
2.66117e-29
2.67719e-29
2.67709e-29
2.67688e-29
2.67658e-29
2.67617e-29
2.67567e-29
2.67506e-29
2.67436e-29
2.67356e-29
2.67268e-29
2.6717e-29
2.67065e-29
2.66954e-29
2.66836e-29
2.66715e-29
2.6659e-29
2.66464e-29
2.66338e-29
2.66214e-29
2.66093e-29
2.67224e-29
2.67216e-29
2.67202e-29
2.6718e-29
2.67152e-29
2.67116e-29
2.67073e-29
2.67023e-29
2.66966e-29
2.66904e-29
2.66835e-29
2.66761e-29
2.66682e-29
2.66599e-29
2.66514e-29
2.66426e-29
2.66337e-29
2.66248e-29
2.66161e-29
2.66076e-29
2.66871e-29
2.66866e-29
2.66856e-29
2.6684e-29
2.6682e-29
2.66795e-29
2.66764e-29
2.66729e-29
2.66689e-29
2.66645e-29
2.66597e-29
2.66545e-29
2.66489e-29
2.66431e-29
2.66371e-29
2.66309e-29
2.66247e-29
2.66185e-29
2.66123e-29
2.66064e-29
2.66621e-29
2.66618e-29
2.66611e-29
2.666e-29
2.66585e-29
2.66568e-29
2.66546e-29
2.66521e-29
2.66493e-29
2.66462e-29
2.66428e-29
2.66392e-29
2.66353e-29
2.66312e-29
2.6627e-29
2.66227e-29
2.66183e-29
2.6614e-29
2.66097e-29
2.66055e-29
2.66446e-29
2.66443e-29
2.66438e-29
2.66431e-29
2.66421e-29
2.66408e-29
2.66393e-29
2.66376e-29
2.66356e-29
2.66334e-29
2.6631e-29
2.66285e-29
2.66257e-29
2.66229e-29
2.66199e-29
2.66169e-29
2.66139e-29
2.66108e-29
2.66078e-29
2.66049e-29
2.66324e-29
2.66322e-29
2.66319e-29
2.66313e-29
2.66306e-29
2.66297e-29
2.66287e-29
2.66274e-29
2.6626e-29
2.66245e-29
2.66228e-29
2.6621e-29
2.66191e-29
2.66171e-29
2.6615e-29
2.66129e-29
2.66108e-29
2.66086e-29
2.66066e-29
2.66045e-29
2.66241e-29
2.6624e-29
2.66237e-29
2.66233e-29
2.66228e-29
2.66222e-29
2.66214e-29
2.66205e-29
2.66195e-29
2.66185e-29
2.66173e-29
2.6616e-29
2.66146e-29
2.66132e-29
2.66117e-29
2.66102e-29
2.66087e-29
2.66072e-29
2.66057e-29
2.66042e-29
2.66186e-29
2.66185e-29
2.66184e-29
2.66181e-29
2.66177e-29
2.66172e-29
2.66167e-29
2.6616e-29
2.66153e-29
2.66145e-29
2.66136e-29
2.66127e-29
2.66117e-29
2.66106e-29
2.66095e-29
2.66084e-29
2.66073e-29
2.66062e-29
2.66051e-29
2.6604e-29
2.66154e-29
2.66153e-29
2.66151e-29
2.66149e-29
2.66146e-29
2.66142e-29
2.66138e-29
2.66133e-29
2.66127e-29
2.66121e-29
2.66114e-29
2.66107e-29
2.66099e-29
2.66091e-29
2.66082e-29
2.66073e-29
2.66065e-29
2.66056e-29
2.66048e-29
2.66039e-29
2.66138e-29
2.66137e-29
2.66136e-29
2.66134e-29
2.66132e-29
2.66128e-29
2.66125e-29
2.6612e-29
2.66115e-29
2.6611e-29
2.66104e-29
2.66097e-29
2.6609e-29
2.66083e-29
2.66076e-29
2.66068e-29
2.66061e-29
2.66053e-29
2.66046e-29
2.66039e-29
)
;

boundaryField
{
    topWall
    {
        type            zeroGradient;
    }
    bottomWall
    {
        type            zeroGradient;
    }
    sideWallL
    {
        type            symmetry;
    }
    sideWallR
    {
        type            zeroGradient;
    }
    frontAndBack
    {
        type            empty;
    }
}


// ************************************************************************* //
