/*--------------------------------*- C++ -*----------------------------------*\
  =========                 |
  \\      /  F ield         | OpenFOAM: The Open Source CFD Toolbox
   \\    /   O peration     | Website:  https://openfoam.org
    \\  /    A nd           | Version:  7
     \\/     M anipulation  |
\*---------------------------------------------------------------------------*/
FoamFile
{
    version     2.0;
    format      ascii;
    class       volScalarField;
    location    "29";
    object      T;
}
// * * * * * * * * * * * * * * * * * * * * * * * * * * * * * * * * * * * * * //

dimensions      [0 0 0 1 0 0 0];

internalField   nonuniform List<scalar> 
900
(
541.357
541.339
541.302
541.242
541.157
541.039
540.882
540.671
540.39
540.013
539.503
538.804
537.825
536.415
534.302
530.941
525.09
513.432
485.55
404.677
503.664
503.612
503.504
503.334
503.089
502.753
502.302
501.701
500.902
499.835
498.4
496.446
493.738
489.902
484.304
475.816
462.314
439.619
399.548
328.266
470.82
470.738
470.568
470.299
469.914
469.387
468.682
467.746
466.508
464.869
462.682
459.741
455.735
450.193
442.386
431.158
414.676
390.144
353.846
302.997
442.059
441.951
441.729
441.379
440.879
440.197
439.288
438.09
436.517
434.452
431.732
428.13
423.324
416.859
408.084
396.092
379.669
357.375
328.024
292.047
416.938
416.811
416.549
416.138
415.552
414.756
413.7
412.319
410.522
408.189
405.158
401.213
396.065
389.33
380.512
368.997
354.1
335.226
312.254
286.191
395.073
394.932
394.644
394.191
393.548
392.679
391.535
390.05
388.135
385.68
382.535
378.515
373.381
366.843
358.554
348.145
335.282
319.802
301.941
282.592
376.112
375.964
375.661
375.186
374.515
373.613
372.433
370.913
368.974
366.518
363.418
359.522
354.65
348.593
341.132
332.063
321.256
308.742
294.827
280.183
359.736
359.586
359.279
358.799
358.125
357.224
356.053
354.557
352.669
350.304
347.362
343.725
339.263
333.835
327.311
319.593
310.659
300.608
289.722
278.48
345.651
345.504
345.202
344.733
344.077
343.204
342.077
340.65
338.867
336.659
333.948
330.649
326.668
321.919
316.33
309.866
302.551
294.504
285.951
277.233
333.591
333.45
333.161
332.715
332.091
331.267
330.211
328.885
327.242
325.231
322.792
319.864
316.386
312.305
307.588
302.232
296.283
289.848
283.106
276.297
323.311
323.178
322.909
322.493
321.914
321.154
320.186
318.979
317.497
315.701
313.549
310.997
308.006
304.549
300.612
296.211
291.394
286.254
280.926
275.583
314.589
314.467
314.221
313.84
313.314
312.625
311.754
310.676
309.363
307.787
305.918
303.726
301.188
298.291
295.035
291.441
287.556
283.453
279.236
275.03
307.224
307.115
306.892
306.551
306.08
305.467
304.696
303.748
302.603
301.24
299.638
297.778
295.649
293.244
290.57
287.651
284.526
281.256
277.916
274.599
301.035
300.938
300.741
300.439
300.025
299.487
298.814
297.993
297.007
295.843
294.486
292.925
291.155
289.174
286.993
284.633
282.127
279.523
276.879
274.261
295.861
295.776
295.603
295.34
294.98
294.515
293.935
293.232
292.394
291.411
290.273
288.976
287.515
285.895
284.125
282.225
280.222
278.152
276.06
273.994
291.555
291.481
291.333
291.106
290.797
290.399
289.906
289.311
288.606
287.783
286.839
285.769
284.573
283.256
281.828
280.304
278.708
277.066
275.412
273.784
287.989
287.927
287.8
287.607
287.345
287.009
286.594
286.095
285.507
284.826
284.048
283.172
282.2
281.136
279.989
278.772
277.503
276.204
274.899
273.617
285.052
284.999
284.893
284.731
284.51
284.229
283.883
283.469
282.984
282.424
281.788
281.076
280.29
279.435
278.518
277.55
276.545
275.519
274.493
273.484
282.645
282.601
282.512
282.376
282.193
281.96
281.675
281.334
280.936
280.48
279.964
279.389
278.758
278.074
277.344
276.577
275.784
274.977
274.17
273.38
280.682
280.645
280.571
280.46
280.309
280.117
279.883
279.605
279.282
278.913
278.497
278.036
277.532
276.988
276.41
275.804
275.18
274.547
273.915
273.297
279.088
279.058
278.998
278.907
278.784
278.628
278.438
278.213
277.952
277.655
277.322
276.954
276.553
276.123
275.667
275.191
274.702
274.207
273.714
273.232
277.802
277.778
277.729
277.655
277.555
277.429
277.276
277.095
276.886
276.649
276.384
276.092
275.776
275.437
275.079
274.706
274.324
273.938
273.555
273.18
276.77
276.75
276.71
276.651
276.571
276.469
276.347
276.202
276.036
275.848
275.638
275.409
275.16
274.894
274.615
274.324
274.027
273.727
273.43
273.139
275.944
275.929
275.897
275.849
275.785
275.705
275.607
275.493
275.361
275.213
275.048
274.868
274.674
274.466
274.249
274.024
273.793
273.562
273.332
273.108
275.288
275.276
275.251
275.213
275.162
275.099
275.022
274.932
274.828
274.712
274.583
274.443
274.291
274.131
273.962
273.788
273.611
273.432
273.255
273.083
274.77
274.76
274.74
274.71
274.67
274.62
274.56
274.49
274.409
274.318
274.218
274.109
273.992
273.868
273.738
273.604
273.468
273.331
273.195
273.063
274.362
274.354
274.339
274.315
274.284
274.245
274.198
274.143
274.081
274.011
273.933
273.849
273.759
273.664
273.564
273.461
273.357
273.253
273.149
273.048
274.043
274.037
274.024
274.006
273.982
273.952
273.916
273.873
273.825
273.771
273.711
273.647
273.578
273.505
273.429
273.351
273.271
273.192
273.113
273.037
273.794
273.789
273.78
273.766
273.748
273.724
273.696
273.664
273.627
273.585
273.54
273.491
273.438
273.383
273.325
273.266
273.205
273.145
273.086
273.028
273.602
273.598
273.591
273.58
273.566
273.548
273.527
273.502
273.474
273.442
273.408
273.37
273.331
273.289
273.245
273.2
273.155
273.109
273.064
273.021
273.454
273.451
273.446
273.437
273.427
273.413
273.397
273.378
273.356
273.333
273.306
273.278
273.248
273.217
273.184
273.15
273.116
273.082
273.048
273.016
273.34
273.338
273.334
273.328
273.32
273.309
273.297
273.283
273.267
273.249
273.229
273.208
273.185
273.162
273.137
273.112
273.087
273.061
273.036
273.012
273.254
273.252
273.249
273.245
273.238
273.231
273.221
273.211
273.199
273.185
273.171
273.155
273.138
273.12
273.102
273.083
273.064
273.045
273.027
273.009
273.188
273.187
273.185
273.182
273.177
273.171
273.164
273.156
273.147
273.137
273.126
273.115
273.102
273.089
273.075
273.062
273.048
273.034
273.02
273.006
273.139
273.138
273.137
273.134
273.131
273.126
273.121
273.115
273.109
273.101
273.093
273.084
273.075
273.065
273.055
273.045
273.035
273.025
273.015
273.005
273.102
273.102
273.1
273.098
273.096
273.093
273.089
273.085
273.08
273.074
273.068
273.062
273.055
273.048
273.041
273.033
273.026
273.018
273.011
273.003
273.075
273.074
273.073
273.072
273.07
273.068
273.065
273.062
273.058
273.054
273.05
273.045
273.04
273.035
273.03
273.024
273.019
273.013
273.008
273.003
273.054
273.054
273.053
273.052
273.051
273.049
273.047
273.045
273.042
273.039
273.036
273.033
273.029
273.025
273.022
273.018
273.014
273.01
273.006
273.002
273.04
273.039
273.039
273.038
273.037
273.036
273.034
273.033
273.031
273.029
273.026
273.024
273.021
273.018
273.016
273.013
273.01
273.007
273.004
273.001
273.029
273.029
273.028
273.028
273.027
273.026
273.025
273.024
273.022
273.021
273.019
273.017
273.015
273.013
273.011
273.009
273.007
273.005
273.003
273.001
273.021
273.021
273.021
273.02
273.02
273.019
273.018
273.017
273.016
273.015
273.014
273.013
273.011
273.01
273.008
273.007
273.005
273.004
273.002
273.001
273.015
273.015
273.015
273.015
273.014
273.014
273.013
273.013
273.012
273.011
273.01
273.009
273.008
273.007
273.006
273.005
273.004
273.003
273.002
273.001
273.012
273.012
273.012
273.011
273.011
273.011
273.01
273.01
273.009
273.008
273.008
273.007
273.006
273.005
273.005
273.004
273.003
273.002
273.001
273
273.01
273.009
273.009
273.009
273.009
273.009
273.008
273.008
273.007
273.007
273.006
273.006
273.005
273.004
273.004
273.003
273.002
273.002
273.001
273
273.008
273.008
273.008
273.008
273.008
273.008
273.007
273.007
273.007
273.006
273.006
273.005
273.004
273.004
273.003
273.003
273.002
273.001
273.001
273
)
;

boundaryField
{
    topWall
    {
        type            zeroGradient;
    }
    bottomWall
    {
        type            codedFixedValue;
        value           uniform 563;
        name            heating;
        code            #{
            const scalar t = this->db().time().value();
            const scalar Ttemp = 273 + 10*t;
            operator==(Ttemp);
        #};
    }
    sideWallL
    {
        type            symmetry;
    }
    sideWallR
    {
        type            fixedValue;
        value           uniform 273;
    }
    frontAndBack
    {
        type            empty;
    }
}


// ************************************************************************* //
