/*--------------------------------*- C++ -*----------------------------------*\
  =========                 |
  \\      /  F ield         | OpenFOAM: The Open Source CFD Toolbox
   \\    /   O peration     | Website:  https://openfoam.org
    \\  /    A nd           | Version:  7
     \\/     M anipulation  |
\*---------------------------------------------------------------------------*/
FoamFile
{
    version     2.0;
    format      ascii;
    class       volScalarField;
    location    "25";
    object      gradTx;
}
// * * * * * * * * * * * * * * * * * * * * * * * * * * * * * * * * * * * * * //

dimensions      [0 -1 0 1 0 0 0];

internalField   nonuniform List<scalar> 
900
(
-32.5526
-100.079
-175.107
-263.463
-372.353
-511.229
-693.067
-936.383
-1268.55
-1731.54
-2392.4
-3363.69
-4846.46
-7229.99
-11352.1
-19273.2
-36895.3
-83796.1
-232018
-745091
-93.5649
-287.57
-502.856
-755.894
-1066.95
-1462.41
-1978.23
-2665.17
-3597.3
-4886.28
-6706.34
-9340.29
-13268.1
-19346.7
-29190.7
-46003.9
-76351.2
-133361
-238385
-392866
-147.611
-453.433
-792.015
-1188.54
-1673.7
-2286.98
-3081.37
-4130.33
-5538.6
-7459.51
-10123.3
-13885
-19305.2
-27289.6
-39317.5
-57774.9
-86245.7
-128920
-186074
-238347
-192.408
-590.585
-1029.98
-1541.96
-2164.26
-2944.63
-3945.76
-5252.42
-6981.75
-9298.7
-12438.9
-16742.8
-22703.9
-31031.8
-42711.2
-58986.4
-81053.9
-108946
-138748
-158194
-226.504
-694.578
-1209
-1804.66
-2522.79
-3414.48
-4545.13
-6000.41
-7894.33
-10380.1
-13664
-18022.4
-23818.1
-31504.8
-41593.7
-54516.9
-70273.7
-87704.5
-103400
-111094
-249.369
-763.853
-1326.65
-1973.6
-2746.33
-3695.11
-4882.4
-6387.11
-8309.8
-10778.5
-13954.5
-18035.4
-23251
-29840.3
-37989.1
-47697.7
-58541.2
-69325.1
-77791.5
-80867.1
-261.327
-799.524
-1385.25
-2053.27
-2843.08
-3801.13
-4983.2
-6457.02
-8304.75
-10624.8
-13531.8
-17151.8
-21609.1
-26996.1
-33317.1
-40395.8
-47746.3
-54446.3
-59123
-60254.7
-263.403
-804.859
-1390.97
-2053.88
-2829.34
-3758.12
-4887.48
-6272.28
-7975.53
-10067.6
-12622.9
-15712.2
-19387.5
-23655.9
-28439.2
-33519.6
-38482
-42684.3
-45313.9
-45596.7
-257.104
-784.598
-1352.46
-1989.29
-2726.16
-3597.42
-4641.38
-5900.37
-7420.09
-9247.45
-11426.2
-13988.7
-16943.4
-20255.2
-23820.4
-27438.7
-30793.3
-33456.5
-34948.6
-34862.8
-244.193
-744.242
-1279.61
-1874.9
-2556.23
-3351.57
-4290.82
-5405.26
-6726.36
-8283.09
-10097.6
-12178.6
-14511.1
-17044.3
-19677.2
-22246.3
-24522.4
-26226
-27071.2
-26837.9
-226.493
-689.426
-1182.38
-1725.95
-2341.45
-3050.99
-3877.13
-4842.15
-5966.51
-7266.46
-8750.25
-10413
-12229.9
-14148.8
-16082.6
-17905.6
-19456.9
-20554.6
-21026.2
-20749.3
-205.722
-625.439
-1070.04
-1556.34
-2101.31
-2721.95
-3434.82
-4255.17
-5195.51
-6263.57
-7459.33
-8771.42
-10172.8
-11616.4
-13032.1
-14326.8
-15388.6
-16099.4
-16353.6
-16081.3
-183.392
-556.904
-950.59
-1377.86
-1851.94
-2385.62
-2990.71
-3677.24
-4452.25
-5318.11
-6270.45
-7295.67
-8368.36
-9449.14
-10483.7
-11404.3
-12133.9
-12595.3
-12723
-12476.5
-160.748
-487.603
-830.485
-1199.88
-1605.9
-2057.95
-2564.25
-3131.1
-3761.93
-4456.04
-5207.17
-6001.87
-6818.14
-7624.39
-8379.63
-9035.05
-9537.91
-9837.43
-9892.46
-9679.15
-138.748
-420.437
-714.626
-1029.37
-1372.26
-1750.08
-2168.39
-2630.94
-3138.91
-3690.03
-4277.61
-4889.57
-5507.74
-6107.51
-6658.41
-7125.65
-7473.03
-7666.99
-7681.36
-7501.98
-118.081
-357.466
-606.437
-871.084
-1157
-1469
-1810.73
-2184.25
-2589.42
-3023.37
-3479.76
-3948.36
-4414.61
-4859.73
-5261.33
-5594.74
-5835.08
-5960.02
-5952.8
-5804.94
-99.1887
-300.007
-508.062
-727.887
-963.541
-1218.37
-1494.7
-1793.5
-2113.97
-2453.11
-2805.4
-3162.43
-3512.84
-3842.49
-4135.07
-4373.12
-4539.53
-4619.37
-4601.8
-4481.74
-82.3137
-248.762
-420.595
-601.135
-793.288
-999.335
-1220.7
-1457.68
-1709.2
-1972.48
-2242.87
-2513.67
-2776.15
-3019.79
-3232.78
-3402.79
-3518.02
-3568.45
-3547.02
-3450.7
-67.5375
-203.952
-344.318
-491.037
-646.158
-811.202
-986.996
-1173.47
-1369.47
-1572.59
-1779.03
-1983.55
-2179.54
-2359.25
-2514.15
-2635.55
-2715.3
-2746.64
-2724.97
-2648.48
-54.8237
-165.444
-278.924
-396.98
-521.031
-652.073
-790.542
-936.18
-1087.9
-1243.69
-1400.52
-1554.36
-1700.26
-1832.52
-1945.04
-2031.68
-2086.82
-2105.88
-2085.83
-2025.63
-44.0543
-132.86
-223.71
-317.812
-416.136
-519.314
-627.544
-740.488
-857.189
-976.004
-1094.57
-1209.83
-1318.1
-1415.23
-1496.84
-1558.62
-1596.68
-1607.92
-1590.34
-1543.33
-35.0604
-105.675
-177.732
-252.071
-329.342
-409.935
-493.905
-580.903
-670.12
-760.247
-849.466
-935.475
-1015.56
-1086.71
-1145.81
-1189.81
-1216.03
-1222.36
-1207.48
-1171.06
-27.6463
-83.2838
-139.927
-198.15
-258.382
-320.853
-385.538
-452.112
-519.912
-587.914
-654.736
-718.663
-777.705
-829.691
-872.395
-903.69
-921.71
-925.02
-912.758
-884.738
-21.6075
-65.0606
-109.206
-154.43
-201.011
-249.076
-298.561
-349.181
-400.405
-451.444
-501.259
-548.58
-591.958
-629.833
-660.626
-682.842
-695.192
-696.699
-686.794
-665.386
-16.7438
-50.3937
-84.5135
-119.36
-155.11
-191.824
-229.425
-267.673
-306.151
-344.259
-381.22
-416.104
-447.86
-475.371
-497.519
-513.258
-521.696
-522.168
-514.299
-498.051
-12.8678
-38.7124
-64.8717
-91.5139
-118.746
-146.592
-174.974
-203.696
-232.434
-260.737
-288.031
-313.637
-336.798
-356.717
-372.604
-383.729
-389.474
-389.389
-383.225
-370.974
-9.80961
-29.5011
-49.4003
-69.615
-90.2082
-111.182
-132.465
-153.901
-175.242
-196.153
-216.212
-234.926
-251.752
-266.124
-277.486
-285.33
-289.228
-288.873
-284.105
-274.927
-7.41966
-22.3062
-37.3276
-52.5515
-68.0128
-83.7028
-99.5591
-115.46
-131.218
-146.585
-161.254
-174.87
-187.045
-197.377
-205.478
-210.992
-213.626
-213.172
-209.524
-202.692
-5.56899
-16.7373
-27.9916
-39.3732
-50.8998
-62.5578
-74.2955
-86.0185
-97.5879
-108.821
-119.495
-129.356
-138.128
-145.528
-151.284
-155.149
-156.921
-156.461
-153.697
-148.644
-4.14851
-12.4646
-20.8345
-29.2824
-37.816
-46.4203
-55.0536
-63.6443
-72.0895
-80.2561
-87.984
-95.0917
-101.384
-106.663
-110.738
-113.439
-114.626
-114.206
-112.133
-108.418
-3.06752
-9.21431
-15.3939
-21.6199
-27.8941
-34.2025
-40.5122
-46.7693
-52.8985
-58.8033
-64.3694
-69.4679
-73.9615
-77.7115
-80.5855
-82.466
-83.2583
-82.898
-81.3561
-78.6431
-2.2517
-6.76214
-11.292
-15.8483
-20.43
-25.0247
-29.6069
-34.1367
-38.5591
-42.805
-46.793
-50.4322
-53.6263
-56.2787
-58.2977
-59.6025
-60.1284
-59.8322
-58.6952
-56.726
-1.64099
-4.92705
-8.22411
-11.5355
-14.8586
-18.1832
-21.4898
-24.7492
-27.9215
-30.9576
-33.7997
-36.3842
-38.6437
-40.5114
-41.9239
-42.8258
-43.1732
-42.937
-42.1053
-40.685
-1.18745
-3.5646
-5.94764
-8.33769
-10.7318
-13.1217
-15.4929
-17.8238
-20.0861
-22.2449
-24.2595
-26.0854
-27.6761
-28.9851
-29.9691
-30.5901
-30.8184
-30.6345
-30.0309
-29.0129
-0.853269
-2.56096
-4.27151
-5.9849
-7.6983
-9.40523
-11.0949
-12.7518
-14.3556
-15.8819
-17.3021
-18.5855
-19.6997
-20.6129
-21.2953
-21.7212
-21.8704
-21.73
-21.2952
-20.5701
-0.608941
-1.82734
-3.04689
-4.26701
-5.48524
-6.69659
-7.89314
-9.06378
-10.1942
-11.2672
-12.263
-13.1603
-13.9368
-14.5708
-15.042
-15.3328
-15.4298
-15.3244
-15.0135
-14.5002
-0.431701
-1.29527
-2.15906
-3.02232
-3.883
-4.73733
-5.57956
-6.4018
-7.19399
-7.94415
-8.63863
-9.26272
-9.80122
-10.2393
-10.5631
-10.7609
-10.8236
-10.7456
-10.5248
-10.1636
-0.304156
-0.912457
-1.52053
-2.12762
-2.73208
-3.33111
-3.92057
-4.4949
-5.04708
-5.56879
-6.05066
-6.48261
-6.85429
-7.15558
-7.37721
-7.51122
-7.55154
-7.4944
-7.33866
-7.08598
-0.213164
-0.639399
-1.06523
-1.48996
-1.91232
-2.33026
-2.74082
-3.1401
-3.52321
-3.88443
-4.21733
-4.51505
-4.77054
-4.97698
-5.1281
-5.21858
-5.24436
-5.20297
-5.09371
-4.91777
-0.1489
-0.44658
-0.74381
-1.04001
-1.33421
-1.62492
-1.91003
-2.18681
-2.45189
-2.70133
-2.93073
-3.13543
-3.31066
-3.45179
-3.55463
-3.6156
-3.63201
-3.60224
-3.52585
-3.40371
-0.104115
-0.312224
-0.519909
-0.7267
-0.93186
-1.13431
-1.33255
-1.52467
-1.70834
-1.88084
-2.03918
-2.18015
-2.30053
-2.39719
-2.46731
-2.50847
-2.5189
-2.49752
-2.44407
-2.35917
-0.0735493
-0.220536
-0.367148
-0.513009
-0.657561
-0.80001
-0.939292
-1.07405
-1.20265
-1.32322
-1.43366
-1.53178
-1.61537
-1.68229
-1.7306
-1.7587
-1.76536
-1.74988
-1.7121
-1.65247
-0.0534787
-0.160337
-0.266871
-0.372775
-0.477618
-0.580804
-0.681548
-0.778867
-0.871582
-0.958342
-1.03767
-1.108
-1.16778
-1.21549
-1.24979
-1.26954
-1.2739
-1.26238
-1.2349
-1.19178
-0.0413828
-0.12406
-0.20645
-0.288296
-0.369248
-0.448831
-0.526431
-0.601288
-0.672495
-0.739025
-0.799751
-0.853495
-0.899075
-0.935362
-0.961341
-0.976165
-0.979214
-0.97013
-0.948858
-0.915655
-0.0357055
-0.107034
-0.178095
-0.248657
-0.318407
-0.386929
-0.45369
-0.518034
-0.579183
-0.636258
-0.688298
-0.734302
-0.773265
-0.804233
-0.826345
-0.838891
-0.841346
-0.833417
-0.81506
-0.786499
)
;

boundaryField
{
    topWall
    {
        type            calculated;
        value           nonuniform List<scalar> 
20
(
-0.0357055
-0.107034
-0.178095
-0.248657
-0.318407
-0.386929
-0.45369
-0.518034
-0.579183
-0.636258
-0.688298
-0.734302
-0.773265
-0.804233
-0.826345
-0.838891
-0.841346
-0.833417
-0.81506
-0.786499
)
;
    }
    bottomWall
    {
        type            calculated;
        value           nonuniform List<scalar> 
20
(
-32.5526
-100.079
-175.107
-263.463
-372.353
-511.229
-693.067
-936.383
-1268.55
-1731.54
-2392.4
-3363.69
-4846.46
-7229.99
-11352.1
-19273.2
-36895.3
-83796.1
-232018
-745091
)
;
    }
    sideWallL
    {
        type            symmetry;
    }
    sideWallR
    {
        type            calculated;
        value           nonuniform List<scalar> 
45
(
-1.1445e+06
-479671
-258871
-163119
-111978
-80643.6
-59751
-45066.3
-34384.2
-26430.8
-20412.8
-15807.8
-12256.6
-9503.74
-7362.96
-5695.38
-4395.85
-3383.71
-2596.49
-1985.48
-1512.49
-1147.49
-866.811
-651.825
-487.849
-363.34
-269.246
-198.488
-145.551
-106.156
-76.9975
-55.5362
-39.8298
-28.4018
-20.1361
-14.1937
-9.9485
-6.93579
-4.8134
-3.33139
-2.30899
-1.61728
-1.16638
-0.896122
-0.769713
)
;
    }
    frontAndBack
    {
        type            empty;
    }
}


// ************************************************************************* //
