/*--------------------------------*- C++ -*----------------------------------*\
  =========                 |
  \\      /  F ield         | OpenFOAM: The Open Source CFD Toolbox
   \\    /   O peration     | Website:  https://openfoam.org
    \\  /    A nd           | Version:  7
     \\/     M anipulation  |
\*---------------------------------------------------------------------------*/
FoamFile
{
    version     2.0;
    format      ascii;
    class       volScalarField;
    location    "25";
    object      gradTy;
}
// * * * * * * * * * * * * * * * * * * * * * * * * * * * * * * * * * * * * * //

dimensions      [0 -1 0 1 0 0 0];

internalField   nonuniform List<scalar> 
900
(
-182771
-182897
-183159
-183575
-184178
-185014
-186152
-187686
-189753
-192551
-196371
-201650
-209075
-219765
-235652
-260308
-300929
-373554
-518086
-843957
-159154
-159269
-159507
-159886
-160432
-161187
-162208
-163575
-165402
-167845
-171130
-175576
-181651
-190035
-201711
-218000
-240212
-267351
-285337
-221408
-138308
-138407
-138611
-138934
-139397
-140032
-140880
-141999
-143467
-145384
-147879
-151116
-155282
-160552
-166967
-174073
-179949
-178775
-155534
-79138.1
-119876
-119955
-120117
-120371
-120733
-121221
-121860
-122684
-123730
-125040
-126651
-128581
-130788
-133094
-135004
-135370
-131746
-119398
-90529.7
-36723.3
-103547
-103604
-103720
-103900
-104152
-104483
-104902
-105419
-106037
-106747
-107517
-108263
-108809
-108810
-107618
-104088
-96329.2
-81575.1
-56708.3
-20618.9
-89099.1
-89133.9
-89204
-89310.2
-89452.6
-89630.4
-89839.3
-90068.5
-90295.9
-90478.9
-90540.6
-90346.8
-89670.1
-88137.8
-85161.3
-79861.2
-71040.2
-57333.9
-37782.1
-13056.9
-76344
-76358
-76385
-76422.3
-76465.3
-76505.3
-76528.3
-76510.4
-76413.4
-76176.1
-75702.5
-74844.6
-73379.3
-70981
-67194.9
-61431.1
-53016.8
-41372
-26376.1
-8894.34
-65117.7
-65113.4
-65102.7
-65080.6
-65038.8
-64963.7
-64835.1
-64621.9
-64278.4
-63737.2
-62901.1
-61631.6
-59737.9
-56965.9
-52997.1
-47469.2
-40040
-30516.2
-19050.3
-6341.71
-55274.4
-55255.2
-55213.8
-55143.9
-55034.8
-54870.8
-54628.3
-54274.1
-53761.3
-53024.9
-51976.8
-50499.7
-48443.1
-45623.2
-41831.5
-36861.2
-30558.3
-22901.6
-14099.9
-4658.88
-46682.1
-46651.5
-46586.9
-46481.4
-46323.6
-46096.7
-45777.1
-45332.4
-44718.9
-43878.9
-42737.9
-41203
-39162.2
-36489.4
-33055.7
-28751.6
-23522.6
-17415.2
-10620.7
-3492.83
-39218.7
-39180.2
-39099.9
-38970.6
-38781.3
-38515.7
-38151.7
-37659.7
-37001.6
-36128.9
-34982.1
-33490.6
-31574.9
-29152.3
-26147
-22507.2
-18227.4
-13373.4
-8100.83
-2655.74
-32770.5
-32727.4
-32638
-32495.6
-32289.9
-32006.1
-31624.6
-31119.7
-30459.6
-29605.4
-28511.3
-27125.6
-25394
-23264.1
-20694.4
-17665.3
-14193
-10342.3
-6233.73
-2039.06
-27231.2
-27186.2
-27093.3
-26946.6
-26736.9
-26451.2
-26072.9
-25580.6
-24948.8
-24147.1
-23141.3
-21894.9
-20371.7
-18540.3
-16379.8
-13887.8
-11088.1
-8037.11
-4826.13
-1576.02
-22500.6
-22456
-22364.1
-22220
-22015.7
-21740.3
-21380.1
-20918
-20333.8
-19604.7
-18705.7
-17611.8
-16299.6
-14751.2
-12958
-10925.9
-8679.38
-6265.03
-3751.09
-1223.41
-18485.4
-18442.8
-18355.3
-18218.7
-18026.5
-17769.8
-17437.6
-17016.3
-16490.7
-15843.8
-15058
-14116.4
-13004.5
-11712.9
-10239.8
-8594.58
-6799.53
-4891.75
-2922.12
-952.09
-15098.7
-15059.2
-14978.3
-14852.6
-14676.8
-14443.9
-14145.1
-13770.2
-13307.7
-12745.3
-12070.8
-11273.1
-10343.6
-9278.17
-8078.6
-6754.83
-5326.08
-3821.34
-2278.47
-741.777
-12260.2
-12224.5
-12151.5
-12038.6
-11881.6
-11674.9
-11411.9
-11084.9
-10685.4
-10204.7
-9634.48
-8967.77
-8199.79
-7329.31
-6359.85
-5300.76
-4167.9
-2983.7
-1776.32
-577.918
-9896.48
-9864.83
-9800.42
-9701.08
-9563.58
-9383.7
-9156.41
-8875.99
-8536.37
-8131.5
-7655.85
-7105.12
-6476.96
-5771.82
-4993.72
-4150.9
-3256.14
-2326.67
-1383.42
-449.839
-7940.81
-7913.32
-7857.49
-7771.65
-7653.33
-7499.39
-7306.07
-7069.23
-6784.57
-6447.93
-6055.77
-5605.58
-5096.46
-4529.69
-3909.19
-3241.95
-2538.08
-1810.74
-1075.51
-349.556
-6333.32
-6309.83
-6262.22
-6189.23
-6089
-5959.2
-5797.11
-5599.75
-5364.13
-5087.47
-4767.55
-4403.02
-3993.83
-3541.57
-3049.8
-2524.26
-1972.87
-1405.64
-834.145
-271
-5020.68
-5000.92
-4960.91
-4899.72
-4816
-4708.03
-4573.86
-4411.4
-4218.59
-3993.62
-3735.15
-3442.57
-3116.27
-2757.87
-2370.45
-1958.64
-1528.59
-1087.85
-645.067
-209.499
-3955.87
-3939.46
-3906.29
-3855.68
-3786.63
-3697.92
-3588.17
-3455.92
-3299.79
-3118.64
-2911.7
-2678.8
-2420.54
-2138.41
-1835
-1513.97
-1180.07
-839.001
-497.176
-161.42
-3097.8
-3084.34
-3057.18
-3015.82
-2959.54
-2887.49
-2798.68
-2692.14
-2566.96
-2422.43
-2258.16
-2074.22
-1871.26
-1650.62
-1414.39
-1165.44
-907.419
-644.604
-381.761
-123.915
-2410.91
-2400.01
-2378.02
-2344.6
-2299.23
-2241.32
-2170.2
-2085.21
-1985.76
-1871.45
-1742.11
-1597.93
-1439.55
-1268.09
-1085.23
-893.212
-694.799
-493.199
-291.947
-94.7405
-1864.71
-1855.97
-1838.36
-1811.64
-1775.45
-1729.37
-1672.97
-1605.79
-1527.48
-1437.82
-1336.77
-1224.59
-1101.83
-969.429
-828.714
-681.407
-529.6
-375.69
-222.29
-72.1213
-1433.28
-1426.35
-1412.39
-1391.23
-1362.64
-1326.33
-1282
-1229.37
-1168.23
-1098.46
-1020.12
-933.454
-838.944
-737.346
-629.697
-517.314
-401.768
-284.845
-168.474
-54.6507
-1094.78
-1089.33
-1078.37
-1061.78
-1039.41
-1011.05
-976.518
-935.635
-888.282
-834.42
-774.13
-707.643
-635.363
-557.889
-476.023
-390.763
-303.286
-214.915
-127.069
-41.213
-830.963
-826.722
-818.199
-805.313
-787.957
-766.005
-739.333
-707.835
-671.451
-630.181
-584.118
-533.465
-478.549
-419.84
-357.953
-293.638
-227.772
-161.331
-95.3592
-30.9238
-626.74
-623.468
-616.898
-606.975
-593.629
-576.778
-556.346
-532.273
-504.531
-473.144
-438.202
-399.874
-358.424
-314.214
-267.71
-219.474
-170.156
-120.474
-71.1902
-23.0831
-469.71
-467.209
-462.187
-454.611
-444.434
-431.605
-416.079
-397.822
-376.829
-353.133
-326.812
-298.007
-266.924
-233.841
-199.108
-163.143
-126.425
-89.4797
-52.8623
-17.1384
-349.782
-347.885
-344.08
-338.343
-330.646
-320.957
-309.25
-295.51
-279.742
-261.98
-242.291
-220.789
-197.632
-173.031
-147.247
-120.591
-93.4113
-66.0925
-39.0374
-12.6549
-258.808
-257.382
-254.521
-250.212
-244.436
-237.176
-228.417
-218.154
-206.397
-193.177
-178.551
-162.607
-145.467
-127.289
-108.267
-88.6278
-68.6271
-48.5428
-28.6661
-9.29193
-190.264
-189.2
-187.066
-183.855
-179.556
-174.157
-167.653
-160.043
-151.34
-141.57
-130.78
-119.037
-106.433
-93.0865
-79.1395
-64.7579
-50.1271
-35.4479
-20.9295
-6.78359
-138.968
-138.18
-136.602
-134.228
-131.051
-127.067
-122.274
-116.673
-110.276
-103.107
-95.2004
-86.6091
-77.4017
-67.665
-57.5032
-47.0364
-36.3985
-25.7336
-15.1915
-4.92343
-100.838
-100.26
-99.1012
-97.3592
-95.0305
-92.1126
-88.6054
-84.5129
-79.8453
-74.621
-68.8677
-62.6245
-55.9425
-48.8852
-41.5282
-33.9581
-26.2709
-18.5695
-10.9607
-3.55203
-72.6844
-72.2629
-71.4187
-70.1504
-68.4562
-66.3351
-63.7883
-60.8198
-57.4383
-53.6582
-49.5006
-44.9947
-40.1778
-35.0962
-29.8042
-24.364
-18.844
-13.3173
-7.85957
-2.54689
-52.0312
-51.7264
-51.1163
-50.2001
-48.977
-47.4469
-45.6115
-43.4744
-41.0426
-38.3272
-35.3442
-32.1149
-28.6665
-25.0323
-21.2513
-17.3676
-13.4297
-9.48929
-5.59972
-1.81448
-36.9737
-36.7552
-36.3178
-35.6613
-34.7855
-33.6907
-32.3784
-30.8519
-29.1167
-27.1811
-25.057
-22.7598
-20.3093
-17.7292
-15.047
-12.2941
-9.50467
-6.71486
-3.96209
-1.28377
-26.0551
-25.8999
-25.5893
-25.1232
-24.5017
-23.7253
-22.7955
-21.7148
-20.4874
-19.1196
-17.6199
-15.9996
-14.2727
-12.456
-10.569
-8.63344
-6.67333
-4.71391
-2.78117
-0.901098
-18.1681
-18.0591
-17.841
-17.5138
-17.0777
-16.5333
-15.8818
-15.125
-14.2663
-13.3102
-12.2627
-11.132
-9.92784
-8.662
-7.34805
-6.0012
-4.63795
-3.27574
-1.9325
-0.626103
-12.474
-12.3986
-12.2479
-12.0219
-11.7209
-11.3453
-10.896
-10.3746
-9.78325
-9.12533
-8.40514
-7.62825
-6.80149
-5.93296
-5.03198
-4.10893
-3.17508
-2.24228
-1.32272
-0.428527
-8.33728
-8.28664
-8.18539
-8.0336
-7.83146
-7.57936
-7.27796
-6.92836
-6.53216
-6.0916
-5.60966
-5.09009
-4.53751
-3.95734
-3.35581
-2.73983
-2.11687
-1.49482
-0.881737
-0.285652
-5.27334
-5.24117
-5.17686
-5.08047
-4.95215
-4.79216
-4.60097
-4.3793
-4.12821
-3.84914
-3.54401
-3.21524
-2.86573
-2.49894
-2.11881
-1.72968
-1.33627
-0.943532
-0.556525
-0.180291
-2.9049
-2.88713
-2.8516
-2.79835
-2.72748
-2.63914
-2.5336
-2.41128
-2.27277
-2.11888
-1.95068
-1.76951
-1.57698
-1.375
-1.16572
-0.951556
-0.735078
-0.519006
-0.306115
-0.0991668
-0.926452
-0.920774
-0.909425
-0.89242
-0.869786
-0.841578
-0.807884
-0.768837
-0.72463
-0.675525
-0.621864
-0.564073
-0.502671
-0.438263
-0.371541
-0.303268
-0.234267
-0.165401
-0.0975533
-0.0316024
)
;

boundaryField
{
    topWall
    {
        type            calculated;
        value           uniform 0;
    }
    bottomWall
    {
        type            calculated;
        value           nonuniform List<scalar> 
20
(
-195316
-195446
-195716
-196146
-196770
-197636
-198815
-200408
-202560
-205482
-209487
-215052
-222941
-234438
-251861
-279846
-328954
-427427
-664138
-1.3555e+06
)
;
    }
    sideWallL
    {
        type            symmetry;
    }
    sideWallR
    {
        type            calculated;
        value           nonuniform List<scalar> 
45
(
-843957
-221408
-79138.1
-36723.3
-20618.9
-13056.9
-8894.34
-6341.71
-4658.88
-3492.83
-2655.74
-2039.06
-1576.02
-1223.41
-952.09
-741.777
-577.918
-449.839
-349.556
-271
-209.499
-161.42
-123.915
-94.7405
-72.1213
-54.6507
-41.213
-30.9238
-23.0831
-17.1384
-12.6549
-9.29193
-6.78359
-4.92343
-3.55203
-2.54689
-1.81448
-1.28377
-0.901098
-0.626103
-0.428527
-0.285652
-0.180291
-0.0991668
-0.0316024
)
;
    }
    frontAndBack
    {
        type            empty;
    }
}


// ************************************************************************* //
