/*--------------------------------*- C++ -*----------------------------------*\
  =========                 |
  \\      /  F ield         | OpenFOAM: The Open Source CFD Toolbox
   \\    /   O peration     | Website:  https://openfoam.org
    \\  /    A nd           | Version:  7
     \\/     M anipulation  |
\*---------------------------------------------------------------------------*/
FoamFile
{
    version     2.0;
    format      ascii;
    class       volScalarField;
    location    "25";
    object      rhoc;
}
// * * * * * * * * * * * * * * * * * * * * * * * * * * * * * * * * * * * * * //

dimensions      [1 -3 0 0 0 0 0];

internalField   nonuniform List<scalar> 
900
(
2.85598e-09
2.85172e-09
2.8429e-09
2.82885e-09
2.80854e-09
2.78043e-09
2.74239e-09
2.69151e-09
2.62383e-09
2.53407e-09
2.4152e-09
2.25806e-09
2.05109e-09
1.78078e-09
1.43429e-09
1.00865e-09
5.37583e-10
1.46216e-10
5.13158e-12
3.42882e-17
2.73972e-11
2.72628e-11
2.69859e-11
2.65494e-11
2.59274e-11
2.50845e-11
2.3976e-11
2.25493e-11
2.07481e-11
1.85218e-11
1.58439e-11
1.2744e-11
9.3547e-12
5.9644e-12
3.0295e-12
1.04269e-12
1.75093e-13
6.9076e-15
1.06065e-17
5.32575e-24
2.80552e-13
2.78099e-13
2.73073e-13
2.65243e-13
2.54277e-13
2.39775e-13
2.21324e-13
1.98607e-13
1.71577e-13
1.40711e-13
1.07324e-13
7.38369e-14
4.37183e-14
2.06788e-14
6.91235e-15
1.32355e-15
9.98012e-17
1.4874e-18
1.2449e-21
1.00999e-26
3.23924e-15
3.19797e-15
3.11405e-15
2.98494e-15
2.80746e-15
2.57876e-15
2.29777e-15
1.96746e-15
1.59758e-15
1.20747e-15
8.27131e-16
4.94083e-16
2.43119e-16
9.04505e-17
2.231e-17
2.97342e-18
1.55672e-19
1.97923e-21
3.2815e-24
6.42921e-28
4.45229e-17
4.37854e-17
4.22965e-17
4.00343e-17
3.69819e-17
3.31471e-17
2.85919e-17
2.3467e-17
1.80428e-17
1.2718e-17
7.9766e-18
4.26905e-18
1.83805e-18
5.85574e-19
1.22596e-19
1.4283e-20
7.40462e-22
1.30916e-23
6.55239e-26
1.58203e-28
7.66347e-19
7.51092e-19
7.20504e-19
6.74567e-19
6.13617e-19
5.38776e-19
4.52487e-19
3.5901e-19
2.64634e-19
1.77197e-19
1.04571e-19
5.22249e-20
2.09041e-20
6.23847e-21
1.26334e-21
1.54391e-22
9.98332e-24
3.07186e-25
4.74398e-27
7.09236e-29
1.72709e-20
1.68825e-20
1.61079e-20
1.49561e-20
1.34491e-20
1.16329e-20
9.5879e-21
7.43613e-21
5.33784e-21
3.4704e-21
1.98699e-21
9.66368e-22
3.81386e-22
1.15429e-22
2.50626e-23
3.63415e-24
3.31461e-25
1.89289e-26
7.96722e-28
4.31625e-29
5.28555e-22
5.15794e-22
4.90463e-22
4.53069e-22
4.04653e-22
3.47081e-22
2.83305e-22
2.17457e-22
1.54569e-22
9.97837e-23
5.71015e-23
2.81182e-23
1.15009e-23
3.75368e-24
9.37717e-25
1.7311e-25
2.33675e-26
2.4305e-27
2.35514e-28
3.12187e-29
2.25673e-23
2.20084e-23
2.09022e-23
1.9277e-23
1.7186e-23
1.47187e-23
1.20087e-23
9.23451e-24
6.60392e-24
4.32053e-24
2.53573e-24
1.30509e-24
5.74479e-25
2.10861e-25
6.31766e-26
1.53173e-26
3.0659e-27
5.46676e-28
1.02241e-28
2.50771e-29
1.36754e-24
1.33422e-24
1.26838e-24
1.17183e-24
1.0479e-24
9.0199e-25
7.41921e-25
5.77885e-25
4.21561e-25
2.84292e-25
1.74637e-25
9.61705e-26
4.67308e-26
1.97735e-26
7.24165e-27
2.31516e-27
6.68922e-28
1.8806e-28
5.76104e-29
2.15413e-29
1.18579e-25
1.15851e-25
1.10459e-25
1.02549e-25
9.23836e-26
8.03821e-26
6.71474e-26
5.34612e-26
4.0223e-26
2.83245e-26
1.8478e-26
1.10564e-26
6.01788e-27
2.96743e-27
1.33081e-27
5.52152e-28
2.19644e-28
8.85983e-29
3.87271e-29
1.93471e-29
1.47266e-26
1.442e-26
1.38131e-26
1.29206e-26
1.17686e-26
1.03994e-26
8.87396e-27
7.27232e-27
5.68859e-27
4.21976e-27
2.94977e-27
1.9331e-27
1.18444e-27
6.79693e-28
3.68446e-28
1.92062e-28
9.90155e-29
5.23125e-29
2.93406e-29
1.79136e-29
2.60751e-27
2.56062e-27
2.46759e-27
2.3302e-27
2.15173e-27
1.93757e-27
1.69566e-27
1.43675e-27
1.17389e-27
9.21244e-28
6.92149e-28
4.96935e-28
3.41127e-28
2.24825e-28
1.43521e-28
8.99958e-29
5.64672e-29
3.61836e-29
2.41204e-29
1.69426e-29
6.5062e-28
6.41021e-28
6.21925e-28
5.93578e-28
5.56469e-28
5.11435e-28
4.59776e-28
4.03317e-28
3.4438e-28
2.85636e-28
2.29818e-28
1.79356e-28
1.36007e-28
1.00627e-28
7.31369e-29
5.27111e-29
3.80944e-29
2.79262e-29
2.09781e-29
1.62679e-29
2.23309e-28
2.20744e-28
2.15625e-28
2.07985e-28
1.97903e-28
1.85527e-28
1.7111e-28
1.55029e-28
1.37794e-28
1.20027e-28
1.0242e-28
8.56582e-29
7.03346e-29
5.68774e-29
4.55064e-29
3.62331e-29
2.89013e-29
2.32499e-29
1.89773e-29
1.57905e-29
1.01164e-28
1.00298e-28
9.8565e-29
9.59659e-29
9.25101e-29
8.82243e-29
8.31621e-29
7.74132e-29
7.11091e-29
6.44227e-29
5.75609e-29
5.07481e-29
4.42046e-29
3.81223e-29
3.26452e-29
2.78579e-29
2.37857e-29
2.04036e-29
1.7651e-29
1.54483e-29
5.72916e-29
5.69367e-29
5.62246e-29
5.51521e-29
5.37173e-29
5.19227e-29
4.97789e-29
4.73088e-29
4.45502e-29
4.15578e-29
3.84023e-29
3.51669e-29
3.19412e-29
2.88133e-29
2.58615e-29
2.31477e-29
2.07135e-29
1.85791e-29
1.67461e-29
1.5201e-29
3.83563e-29
3.81866e-29
3.78455e-29
3.73301e-29
3.66374e-29
3.57654e-29
3.47149e-29
3.34912e-29
3.21058e-29
3.05776e-29
2.89334e-29
2.72073e-29
2.54389e-29
2.36706e-29
2.19444e-29
2.02986e-29
1.87646e-29
1.73656e-29
1.61159e-29
1.50211e-29
2.89438e-29
2.88525e-29
2.86689e-29
2.83909e-29
2.8016e-29
2.7542e-29
2.69674e-29
2.6293e-29
2.5522e-29
2.46614e-29
2.37221e-29
2.27193e-29
2.16717e-29
2.06012e-29
1.95305e-29
1.84827e-29
1.74788e-29
1.65368e-29
1.56706e-29
1.48898e-29
2.37456e-29
2.36921e-29
2.35843e-29
2.34209e-29
2.32002e-29
2.29202e-29
2.25796e-29
2.21777e-29
2.17152e-29
2.11947e-29
2.06211e-29
2.00015e-29
1.93454e-29
1.86646e-29
1.79719e-29
1.72814e-29
1.66065e-29
1.596e-29
1.53529e-29
1.47938e-29
2.06452e-29
2.06118e-29
2.05444e-29
2.04423e-29
2.03041e-29
2.01285e-29
1.99145e-29
1.9661e-29
1.93682e-29
1.90369e-29
1.86694e-29
1.82693e-29
1.78418e-29
1.73933e-29
1.69316e-29
1.64652e-29
1.60029e-29
1.55534e-29
1.51246e-29
1.47236e-29
1.86903e-29
1.86685e-29
1.86245e-29
1.85577e-29
1.84673e-29
1.83524e-29
1.82121e-29
1.80458e-29
1.78531e-29
1.76345e-29
1.73909e-29
1.71243e-29
1.68377e-29
1.65349e-29
1.62206e-29
1.59002e-29
1.55794e-29
1.52642e-29
1.496e-29
1.46722e-29
1.74077e-29
1.73929e-29
1.73632e-29
1.73182e-29
1.72572e-29
1.71798e-29
1.70851e-29
1.69728e-29
1.68425e-29
1.66945e-29
1.65291e-29
1.63476e-29
1.61517e-29
1.59438e-29
1.57268e-29
1.55041e-29
1.52796e-29
1.50573e-29
1.48411e-29
1.46347e-29
1.6542e-29
1.65319e-29
1.65114e-29
1.64803e-29
1.64384e-29
1.6385e-29
1.63198e-29
1.62425e-29
1.61528e-29
1.60508e-29
1.59367e-29
1.58113e-29
1.56756e-29
1.55312e-29
1.53799e-29
1.5224e-29
1.50662e-29
1.4909e-29
1.47552e-29
1.46074e-29
1.59462e-29
1.59391e-29
1.59248e-29
1.59031e-29
1.58738e-29
1.58365e-29
1.5791e-29
1.57371e-29
1.56746e-29
1.56035e-29
1.55239e-29
1.54364e-29
1.53417e-29
1.52406e-29
1.51346e-29
1.5025e-29
1.49137e-29
1.48024e-29
1.46931e-29
1.45876e-29
1.55307e-29
1.55257e-29
1.55156e-29
1.55002e-29
1.54796e-29
1.54533e-29
1.54213e-29
1.53834e-29
1.53395e-29
1.52896e-29
1.52338e-29
1.51724e-29
1.51059e-29
1.50349e-29
1.49603e-29
1.48832e-29
1.48046e-29
1.47259e-29
1.46483e-29
1.45733e-29
1.52384e-29
1.52348e-29
1.52276e-29
1.52168e-29
1.52021e-29
1.51836e-29
1.51609e-29
1.51342e-29
1.51032e-29
1.5068e-29
1.50288e-29
1.49856e-29
1.49388e-29
1.48888e-29
1.48364e-29
1.4782e-29
1.47266e-29
1.4671e-29
1.46162e-29
1.45629e-29
1.50317e-29
1.50292e-29
1.50241e-29
1.50164e-29
1.5006e-29
1.49928e-29
1.49768e-29
1.49579e-29
1.4936e-29
1.49112e-29
1.48835e-29
1.48531e-29
1.48202e-29
1.47851e-29
1.47482e-29
1.47099e-29
1.46709e-29
1.46318e-29
1.45931e-29
1.45555e-29
1.48853e-29
1.48835e-29
1.48799e-29
1.48744e-29
1.4867e-29
1.48577e-29
1.48464e-29
1.4833e-29
1.48176e-29
1.48001e-29
1.47806e-29
1.47592e-29
1.47361e-29
1.47114e-29
1.46855e-29
1.46587e-29
1.46313e-29
1.46038e-29
1.45766e-29
1.45502e-29
1.47816e-29
1.47803e-29
1.47777e-29
1.47738e-29
1.47686e-29
1.4762e-29
1.4754e-29
1.47446e-29
1.47337e-29
1.47214e-29
1.47077e-29
1.46927e-29
1.46765e-29
1.46592e-29
1.46411e-29
1.46223e-29
1.46032e-29
1.45839e-29
1.45649e-29
1.45464e-29
1.47081e-29
1.47072e-29
1.47054e-29
1.47027e-29
1.4699e-29
1.46943e-29
1.46887e-29
1.4682e-29
1.46744e-29
1.46658e-29
1.46562e-29
1.46457e-29
1.46344e-29
1.46223e-29
1.46097e-29
1.45966e-29
1.45833e-29
1.45699e-29
1.45566e-29
1.45437e-29
1.46563e-29
1.46557e-29
1.46544e-29
1.46524e-29
1.46499e-29
1.46466e-29
1.46426e-29
1.4638e-29
1.46326e-29
1.46266e-29
1.46199e-29
1.46126e-29
1.46047e-29
1.45963e-29
1.45876e-29
1.45785e-29
1.45692e-29
1.45599e-29
1.45507e-29
1.45418e-29
1.46198e-29
1.46194e-29
1.46185e-29
1.46171e-29
1.46153e-29
1.4613e-29
1.46103e-29
1.4607e-29
1.46033e-29
1.45991e-29
1.45945e-29
1.45894e-29
1.45839e-29
1.45781e-29
1.45721e-29
1.45658e-29
1.45594e-29
1.4553e-29
1.45466e-29
1.45405e-29
1.45943e-29
1.4594e-29
1.45933e-29
1.45924e-29
1.45911e-29
1.45895e-29
1.45876e-29
1.45854e-29
1.45828e-29
1.45799e-29
1.45767e-29
1.45732e-29
1.45694e-29
1.45654e-29
1.45612e-29
1.45569e-29
1.45525e-29
1.45481e-29
1.45438e-29
1.45395e-29
1.45764e-29
1.45762e-29
1.45758e-29
1.45751e-29
1.45743e-29
1.45732e-29
1.45718e-29
1.45703e-29
1.45685e-29
1.45665e-29
1.45643e-29
1.45619e-29
1.45593e-29
1.45566e-29
1.45537e-29
1.45508e-29
1.45478e-29
1.45448e-29
1.45418e-29
1.45389e-29
1.45641e-29
1.45639e-29
1.45636e-29
1.45632e-29
1.45626e-29
1.45618e-29
1.45609e-29
1.45598e-29
1.45586e-29
1.45573e-29
1.45557e-29
1.45541e-29
1.45523e-29
1.45505e-29
1.45485e-29
1.45465e-29
1.45445e-29
1.45424e-29
1.45404e-29
1.45384e-29
1.45555e-29
1.45554e-29
1.45552e-29
1.45549e-29
1.45545e-29
1.4554e-29
1.45534e-29
1.45526e-29
1.45518e-29
1.45509e-29
1.45499e-29
1.45487e-29
1.45475e-29
1.45463e-29
1.4545e-29
1.45436e-29
1.45422e-29
1.45408e-29
1.45395e-29
1.45381e-29
1.45497e-29
1.45496e-29
1.45495e-29
1.45493e-29
1.4549e-29
1.45486e-29
1.45482e-29
1.45477e-29
1.45471e-29
1.45465e-29
1.45458e-29
1.45451e-29
1.45443e-29
1.45434e-29
1.45425e-29
1.45416e-29
1.45407e-29
1.45397e-29
1.45388e-29
1.45379e-29
1.45457e-29
1.45456e-29
1.45455e-29
1.45454e-29
1.45452e-29
1.4545e-29
1.45447e-29
1.45444e-29
1.4544e-29
1.45436e-29
1.45431e-29
1.45426e-29
1.4542e-29
1.45415e-29
1.45409e-29
1.45403e-29
1.45396e-29
1.4539e-29
1.45384e-29
1.45378e-29
1.4543e-29
1.4543e-29
1.45429e-29
1.45428e-29
1.45427e-29
1.45425e-29
1.45423e-29
1.45421e-29
1.45418e-29
1.45415e-29
1.45412e-29
1.45409e-29
1.45405e-29
1.45401e-29
1.45397e-29
1.45393e-29
1.45389e-29
1.45385e-29
1.45381e-29
1.45377e-29
1.45412e-29
1.45412e-29
1.45411e-29
1.4541e-29
1.4541e-29
1.45409e-29
1.45407e-29
1.45406e-29
1.45404e-29
1.45402e-29
1.454e-29
1.45398e-29
1.45395e-29
1.45393e-29
1.4539e-29
1.45387e-29
1.45385e-29
1.45382e-29
1.45379e-29
1.45376e-29
1.454e-29
1.454e-29
1.45399e-29
1.45399e-29
1.45398e-29
1.45398e-29
1.45397e-29
1.45396e-29
1.45395e-29
1.45393e-29
1.45392e-29
1.4539e-29
1.45389e-29
1.45387e-29
1.45385e-29
1.45383e-29
1.45381e-29
1.4538e-29
1.45378e-29
1.45376e-29
1.45392e-29
1.45392e-29
1.45392e-29
1.45392e-29
1.45391e-29
1.45391e-29
1.4539e-29
1.45389e-29
1.45389e-29
1.45388e-29
1.45387e-29
1.45386e-29
1.45385e-29
1.45383e-29
1.45382e-29
1.45381e-29
1.45379e-29
1.45378e-29
1.45377e-29
1.45376e-29
1.45388e-29
1.45388e-29
1.45388e-29
1.45387e-29
1.45387e-29
1.45387e-29
1.45386e-29
1.45386e-29
1.45385e-29
1.45384e-29
1.45384e-29
1.45383e-29
1.45382e-29
1.45381e-29
1.4538e-29
1.45379e-29
1.45378e-29
1.45377e-29
1.45376e-29
1.45375e-29
1.45386e-29
1.45386e-29
1.45386e-29
1.45385e-29
1.45385e-29
1.45385e-29
1.45384e-29
1.45384e-29
1.45384e-29
1.45383e-29
1.45382e-29
1.45382e-29
1.45381e-29
1.4538e-29
1.45379e-29
1.45379e-29
1.45378e-29
1.45377e-29
1.45376e-29
1.45375e-29
)
;

boundaryField
{
    topWall
    {
        type            zeroGradient;
    }
    bottomWall
    {
        type            zeroGradient;
    }
    sideWallL
    {
        type            symmetry;
    }
    sideWallR
    {
        type            zeroGradient;
    }
    frontAndBack
    {
        type            empty;
    }
}


// ************************************************************************* //
