/*--------------------------------*- C++ -*----------------------------------*\
  =========                 |
  \\      /  F ield         | OpenFOAM: The Open Source CFD Toolbox
   \\    /   O peration     | Website:  https://openfoam.org
    \\  /    A nd           | Version:  7
     \\/     M anipulation  |
\*---------------------------------------------------------------------------*/
FoamFile
{
    version     2.0;
    format      ascii;
    class       volScalarField;
    location    "25";
    object      rhog;
}
// * * * * * * * * * * * * * * * * * * * * * * * * * * * * * * * * * * * * * //

dimensions      [1 -3 0 0 0 0 0];

internalField   nonuniform List<scalar> 
900
(
0.000866894
0.000866138
0.000864568
0.000862068
0.000858443
0.000853413
0.000846578
0.000837378
0.000825037
0.000808474
0.000786174
0.000755999
0.000714908
0.000658556
0.000580802
0.000473471
0.000328649
0.00015438
2.20158e-05
2.02911e-08
5.91869e-05
5.90165e-05
5.86641e-05
5.81058e-05
5.7304e-05
5.62053e-05
5.47376e-05
5.28078e-05
5.02989e-05
4.7071e-05
4.29681e-05
3.784e-05
3.15937e-05
2.42978e-05
1.63652e-05
8.78067e-06
3.09488e-06
4.65544e-07
1.02365e-08
1.7864e-12
4.14883e-06
4.1274e-06
4.08327e-06
4.01387e-06
3.91529e-06
3.78225e-06
3.60819e-06
3.38559e-06
3.10667e-06
2.76504e-06
2.35849e-06
1.89363e-06
1.39221e-06
8.97099e-07
4.71324e-07
1.78313e-07
3.88763e-08
3.23144e-09
4.76282e-11
4.00527e-14
3.07769e-07
3.05439e-07
3.00665e-07
2.93219e-07
2.8277e-07
2.68906e-07
2.51172e-07
2.29157e-07
2.0263e-07
1.71752e-07
1.37375e-07
1.01349e-07
6.66813e-08
3.71876e-08
1.62574e-08
4.93045e-09
8.56205e-10
6.35177e-11
1.36194e-12
7.34356e-15
2.49705e-08
2.47233e-08
2.42194e-08
2.344e-08
2.23598e-08
2.09508e-08
1.91887e-08
1.70643e-08
1.45985e-08
1.1862e-08
8.99346e-09
6.20608e-09
3.7634e-09
1.90774e-09
7.52875e-10
2.0921e-10
3.57128e-11
3.1711e-12
1.28414e-13
3.057e-15
2.28674e-09
2.2594e-09
2.2039e-09
2.11878e-09
2.00219e-09
1.8525e-09
1.66915e-09
1.45382e-09
1.21193e-09
9.54068e-10
6.96588e-10
4.60387e-10
2.66595e-10
1.29497e-10
4.98395e-11
1.41454e-11
2.72705e-12
3.32492e-13
2.59435e-14
1.84099e-15
2.43118e-10
2.39817e-10
2.33144e-10
2.22981e-10
2.09204e-10
1.91758e-10
1.70758e-10
1.46618e-10
1.20191e-10
9.28534e-11
6.6473e-11
4.31499e-11
2.47059e-11
1.20555e-11
4.81217e-12
1.50241e-12
3.52562e-13
6.15e-14
8.6346e-15
1.34164e-15
3.07149e-11
3.02649e-11
2.93586e-11
2.79863e-11
2.61415e-11
2.38303e-11
2.10849e-11
1.79778e-11
1.46358e-11
1.1244e-11
8.03302e-12
5.24156e-12
3.05699e-12
1.55464e-12
6.71548e-13
2.40716e-13
7.08438e-14
1.75202e-14
4.02789e-15
1.09024e-15
4.69223e-12
4.62133e-12
4.47892e-12
4.26422e-12
3.97733e-12
3.62058e-12
3.20045e-12
2.72948e-12
2.22771e-12
1.72273e-12
1.24728e-12
8.3375e-13
5.06622e-13
2.75374e-13
1.31997e-13
5.53667e-14
2.0479e-14
6.94514e-15
2.37091e-15
9.47046e-16
8.76506e-13
8.63397e-13
8.37111e-13
7.97596e-13
7.44982e-13
6.79833e-13
6.0344e-13
5.18126e-13
4.27438e-13
3.36104e-13
2.49611e-13
1.73339e-13
1.11418e-13
6.5698e-14
3.53501e-14
1.74022e-14
7.9742e-15
3.54378e-15
1.63913e-15
8.58698e-16
2.01255e-13
1.9839e-13
1.92651e-13
1.84034e-13
1.72578e-13
1.5841e-13
1.41807e-13
1.23245e-13
1.03441e-13
8.33403e-14
6.40368e-14
4.66212e-14
3.19766e-14
2.0589e-14
1.24549e-14
7.13739e-15
3.95165e-15
2.18694e-15
1.26629e-15
8.01165e-16
5.68185e-14
5.60783e-14
5.45956e-14
5.23698e-14
4.94099e-14
4.57455e-14
4.14403e-14
3.66048e-14
3.14047e-14
2.60594e-14
2.08269e-14
1.59729e-14
1.17277e-14
8.24424e-15
5.57149e-15
3.65562e-15
2.36872e-15
1.55218e-15
1.0561e-15
7.62265e-16
1.96549e-14
1.94302e-14
1.89798e-14
1.83031e-14
1.74018e-14
1.62829e-14
1.49624e-14
1.34686e-14
1.18452e-14
1.01507e-14
8.45585e-15
6.83658e-15
5.36351e-15
4.09106e-15
3.04899e-15
2.23956e-15
1.64136e-15
1.21809e-15
9.28676e-16
7.35254e-16
8.27174e-15
8.1924e-15
8.0333e-15
7.79389e-15
7.47424e-15
7.0759e-15
6.60309e-15
6.06382e-15
5.47082e-15
4.84182e-15
4.19894e-15
3.56695e-15
2.97056e-15
2.4311e-15
1.96365e-15
1.57533e-15
1.26527e-15
1.02624e-15
8.47248e-16
7.16138e-16
4.1828e-15
4.15071e-15
4.08628e-15
3.98917e-15
3.85914e-15
3.69641e-15
3.50209e-15
3.27857e-15
3.02991e-15
2.76204e-15
2.48269e-15
2.2009e-15
1.92627e-15
1.66788e-15
1.43323e-15
1.2274e-15
1.05268e-15
9.08725e-16
7.93178e-16
7.02425e-16
2.49156e-15
2.47693e-15
2.44752e-15
2.40312e-15
2.3435e-15
2.26858e-15
2.17859e-15
2.07426e-15
1.95695e-15
1.82883e-15
1.69283e-15
1.55258e-15
1.41215e-15
1.27567e-15
1.14697e-15
1.02911e-15
9.24191e-16
8.33232e-16
7.56252e-16
6.92494e-16
1.70214e-15
1.69475e-15
1.67989e-15
1.65741e-15
1.62715e-15
1.58899e-15
1.54292e-15
1.48913e-15
1.42811e-15
1.36067e-15
1.28803e-15
1.21176e-15
1.1337e-15
1.05586e-15
9.80242e-16
9.08654e-16
8.42562e-16
7.82994e-16
7.30515e-16
6.85255e-16
1.29469e-15
1.29063e-15
1.28245e-15
1.27007e-15
1.25337e-15
1.23225e-15
1.20664e-15
1.17657e-15
1.14221e-15
1.10388e-15
1.06211e-15
1.01761e-15
9.71295e-16
9.24181e-16
8.77359e-16
8.31892e-16
7.88739e-16
7.48687e-16
7.1231e-16
6.79956e-16
1.06655e-15
1.06416e-15
1.05934e-15
1.05204e-15
1.04218e-15
1.02968e-15
1.01448e-15
9.96552e-16
9.75951e-16
9.52808e-16
9.27359e-16
8.99957e-16
8.7106e-16
8.41221e-16
8.11055e-16
7.81198e-16
7.52265e-16
7.24812e-16
6.99298e-16
6.76069e-16
9.30316e-16
9.2883e-16
9.25837e-16
9.21296e-16
9.15156e-16
9.07359e-16
8.97857e-16
8.8662e-16
8.73654e-16
8.59012e-16
8.42807e-16
8.25218e-16
8.06492e-16
7.8694e-16
7.66922e-16
7.46826e-16
7.27049e-16
7.07972e-16
6.89932e-16
6.73214e-16
8.44805e-16
8.43842e-16
8.41901e-16
8.38957e-16
8.34974e-16
8.29912e-16
8.23734e-16
8.16415e-16
8.07946e-16
7.9835e-16
7.87681e-16
7.76035e-16
7.63553e-16
7.50415e-16
7.3684e-16
7.2307e-16
7.09365e-16
6.95981e-16
6.8316e-16
6.71118e-16
7.89051e-16
7.88407e-16
7.87109e-16
7.85139e-16
7.82475e-16
7.79087e-16
7.7495e-16
7.70044e-16
7.64359e-16
7.57902e-16
7.50703e-16
7.42815e-16
7.34321e-16
7.25331e-16
7.15981e-16
7.06427e-16
6.96838e-16
6.8739e-16
6.78251e-16
6.69581e-16
7.51651e-16
7.5121e-16
7.50321e-16
7.48973e-16
7.4715e-16
7.44832e-16
7.42001e-16
7.38643e-16
7.34749e-16
7.30322e-16
7.25377e-16
7.19947e-16
7.14082e-16
7.07852e-16
7.01342e-16
6.94656e-16
6.87906e-16
6.81211e-16
6.7469e-16
6.68456e-16
7.26035e-16
7.25728e-16
7.25109e-16
7.24172e-16
7.22903e-16
7.21292e-16
7.19326e-16
7.16993e-16
7.14289e-16
7.11212e-16
7.07774e-16
7.03994e-16
6.99904e-16
6.95548e-16
6.90984e-16
6.8628e-16
6.81511e-16
6.76759e-16
6.72107e-16
6.67634e-16
7.08227e-16
7.08011e-16
7.07576e-16
7.06916e-16
7.06025e-16
7.04893e-16
7.03512e-16
7.01876e-16
6.9998e-16
6.97824e-16
6.95414e-16
6.92762e-16
6.89892e-16
6.86831e-16
6.83618e-16
6.80299e-16
6.76924e-16
6.73551e-16
6.70236e-16
6.67036e-16
6.95721e-16
6.95568e-16
6.9526e-16
6.94792e-16
6.94161e-16
6.93361e-16
6.92386e-16
6.91231e-16
6.89894e-16
6.88374e-16
6.86677e-16
6.8481e-16
6.82788e-16
6.80631e-16
6.78365e-16
6.7602e-16
6.73633e-16
6.71241e-16
6.68884e-16
6.66603e-16
6.86882e-16
6.86772e-16
6.86553e-16
6.86221e-16
6.85773e-16
6.85205e-16
6.84514e-16
6.83696e-16
6.8275e-16
6.81677e-16
6.80478e-16
6.79161e-16
6.77735e-16
6.76214e-16
6.74615e-16
6.7296e-16
6.71273e-16
6.69581e-16
6.6791e-16
6.66289e-16
6.8061e-16
6.80533e-16
6.80376e-16
6.8014e-16
6.79821e-16
6.79418e-16
6.78927e-16
6.78348e-16
6.77679e-16
6.7692e-16
6.76074e-16
6.75145e-16
6.74139e-16
6.73067e-16
6.71941e-16
6.70775e-16
6.69585e-16
6.68391e-16
6.6721e-16
6.66063e-16
6.76155e-16
6.761e-16
6.75989e-16
6.75821e-16
6.75594e-16
6.75308e-16
6.7496e-16
6.7455e-16
6.74077e-16
6.73541e-16
6.72944e-16
6.7229e-16
6.71582e-16
6.70828e-16
6.70036e-16
6.69216e-16
6.6838e-16
6.6754e-16
6.6671e-16
6.65902e-16
6.72992e-16
6.72952e-16
6.72873e-16
6.72754e-16
6.72593e-16
6.72391e-16
6.72145e-16
6.71855e-16
6.71521e-16
6.71144e-16
6.70724e-16
6.70264e-16
6.69767e-16
6.69239e-16
6.68684e-16
6.68109e-16
6.67523e-16
6.66935e-16
6.66353e-16
6.65786e-16
6.70749e-16
6.70721e-16
6.70665e-16
6.7058e-16
6.70467e-16
6.70324e-16
6.7015e-16
6.69946e-16
6.69712e-16
6.69447e-16
6.69152e-16
6.6883e-16
6.68483e-16
6.68113e-16
6.67726e-16
6.67325e-16
6.66916e-16
6.66506e-16
6.661e-16
6.65705e-16
6.69163e-16
6.69143e-16
6.69104e-16
6.69044e-16
6.68964e-16
6.68864e-16
6.68742e-16
6.68599e-16
6.68435e-16
6.68249e-16
6.68044e-16
6.67819e-16
6.67577e-16
6.6732e-16
6.6705e-16
6.66772e-16
6.66488e-16
6.66203e-16
6.65921e-16
6.65647e-16
6.68046e-16
6.68032e-16
6.68004e-16
6.67963e-16
6.67907e-16
6.67836e-16
6.67751e-16
6.67651e-16
6.67537e-16
6.67408e-16
6.67265e-16
6.67109e-16
6.66941e-16
6.66763e-16
6.66576e-16
6.66384e-16
6.66188e-16
6.65991e-16
6.65796e-16
6.65606e-16
6.67262e-16
6.67252e-16
6.67233e-16
6.67204e-16
6.67165e-16
6.67116e-16
6.67057e-16
6.66987e-16
6.66908e-16
6.66819e-16
6.6672e-16
6.66612e-16
6.66496e-16
6.66373e-16
6.66245e-16
6.66112e-16
6.65977e-16
6.65842e-16
6.65708e-16
6.65578e-16
6.66715e-16
6.66708e-16
6.66695e-16
6.66674e-16
6.66647e-16
6.66613e-16
6.66573e-16
6.66525e-16
6.6647e-16
6.66408e-16
6.6634e-16
6.66266e-16
6.66187e-16
6.66102e-16
6.66014e-16
6.65924e-16
6.65831e-16
6.65739e-16
6.65647e-16
6.65558e-16
6.66334e-16
6.6633e-16
6.66321e-16
6.66307e-16
6.66288e-16
6.66265e-16
6.66237e-16
6.66204e-16
6.66166e-16
6.66124e-16
6.66077e-16
6.66027e-16
6.65972e-16
6.65915e-16
6.65855e-16
6.65793e-16
6.6573e-16
6.65667e-16
6.65605e-16
6.65544e-16
6.66072e-16
6.66069e-16
6.66062e-16
6.66053e-16
6.6604e-16
6.66024e-16
6.66005e-16
6.65982e-16
6.65957e-16
6.65928e-16
6.65896e-16
6.65862e-16
6.65825e-16
6.65786e-16
6.65745e-16
6.65703e-16
6.65661e-16
6.65618e-16
6.65576e-16
6.65535e-16
6.65891e-16
6.65889e-16
6.65885e-16
6.65878e-16
6.6587e-16
6.65859e-16
6.65846e-16
6.6583e-16
6.65813e-16
6.65794e-16
6.65772e-16
6.65749e-16
6.65724e-16
6.65698e-16
6.6567e-16
6.65642e-16
6.65613e-16
6.65584e-16
6.65556e-16
6.65528e-16
6.65768e-16
6.65767e-16
6.65764e-16
6.65759e-16
6.65754e-16
6.65746e-16
6.65737e-16
6.65727e-16
6.65715e-16
6.65702e-16
6.65688e-16
6.65672e-16
6.65655e-16
6.65637e-16
6.65619e-16
6.656e-16
6.65581e-16
6.65562e-16
6.65543e-16
6.65524e-16
6.65685e-16
6.65684e-16
6.65682e-16
6.65679e-16
6.65675e-16
6.6567e-16
6.65664e-16
6.65657e-16
6.65649e-16
6.6564e-16
6.65631e-16
6.6562e-16
6.65609e-16
6.65597e-16
6.65585e-16
6.65572e-16
6.65559e-16
6.65546e-16
6.65533e-16
6.65521e-16
6.65629e-16
6.65628e-16
6.65627e-16
6.65625e-16
6.65622e-16
6.65619e-16
6.65615e-16
6.6561e-16
6.65605e-16
6.65599e-16
6.65592e-16
6.65585e-16
6.65578e-16
6.6557e-16
6.65562e-16
6.65553e-16
6.65545e-16
6.65536e-16
6.65527e-16
6.65519e-16
6.65592e-16
6.65592e-16
6.65591e-16
6.6559e-16
6.65588e-16
6.65585e-16
6.65583e-16
6.65579e-16
6.65576e-16
6.65572e-16
6.65567e-16
6.65563e-16
6.65557e-16
6.65552e-16
6.65547e-16
6.65541e-16
6.65535e-16
6.65529e-16
6.65523e-16
6.65518e-16
6.65569e-16
6.65569e-16
6.65568e-16
6.65567e-16
6.65566e-16
6.65564e-16
6.65562e-16
6.6556e-16
6.65557e-16
6.65555e-16
6.65551e-16
6.65548e-16
6.65545e-16
6.65541e-16
6.65537e-16
6.65533e-16
6.65529e-16
6.65525e-16
6.65521e-16
6.65517e-16
6.65555e-16
6.65555e-16
6.65554e-16
6.65554e-16
6.65553e-16
6.65552e-16
6.6555e-16
6.65548e-16
6.65547e-16
6.65544e-16
6.65542e-16
6.6554e-16
6.65537e-16
6.65534e-16
6.65531e-16
6.65528e-16
6.65525e-16
6.65522e-16
6.65519e-16
6.65517e-16
6.65549e-16
6.65549e-16
6.65548e-16
6.65548e-16
6.65547e-16
6.65546e-16
6.65545e-16
6.65543e-16
6.65542e-16
6.6554e-16
6.65538e-16
6.65536e-16
6.65533e-16
6.65531e-16
6.65529e-16
6.65526e-16
6.65524e-16
6.65521e-16
6.65519e-16
6.65516e-16
)
;

boundaryField
{
    topWall
    {
        type            calculated;
        value           uniform 0;
    }
    bottomWall
    {
        type            zeroGradient;
    }
    sideWallL
    {
        type            symmetry;
    }
    sideWallR
    {
        type            calculated;
        value           uniform 0;
    }
    frontAndBack
    {
        type            empty;
    }
}


// ************************************************************************* //
