/*--------------------------------*- C++ -*----------------------------------*\
  =========                 |
  \\      /  F ield         | OpenFOAM: The Open Source CFD Toolbox
   \\    /   O peration     | Website:  https://openfoam.org
    \\  /    A nd           | Version:  7
     \\/     M anipulation  |
\*---------------------------------------------------------------------------*/
FoamFile
{
    version     2.0;
    format      ascii;
    class       volScalarField;
    location    "25";
    object      rhois;
}
// * * * * * * * * * * * * * * * * * * * * * * * * * * * * * * * * * * * * * //

dimensions      [1 -3 0 0 0 0 0];

internalField   nonuniform List<scalar> 
900
(
0.00713594
0.00713153
0.00712236
0.00710772
0.00708646
0.00705688
0.00701652
0.00696196
0.00688839
0.00678897
0.00665395
0.0064692
0.00621382
0.00585622
0.00534767
0.00461219
0.00353937
0.00204503
0.00049704
3.14839e-06
0.000995378
0.000993339
0.000989116
0.000982406
0.000972724
0.000959376
0.000941403
0.000917522
0.000886049
0.000844829
0.00079118
0.000721949
0.000633827
0.000524297
0.000393927
0.000250985
0.000117923
2.99117e-05
1.89545e-06
3.86766e-09
0.0001418
0.000141279
0.000140203
0.000138503
0.00013607
0.000132755
0.000128361
0.000122644
0.000115316
0.000106067
9.46109e-05
8.07842e-05
6.47239e-05
4.714e-05
2.96217e-05
1.46812e-05
4.88852e-06
8.13536e-07
3.94367e-08
2.68169e-10
2.11319e-05
2.10182e-05
2.07843e-05
2.0417e-05
1.98965e-05
1.91963e-05
1.82842e-05
1.71243e-05
1.56813e-05
1.39296e-05
1.18673e-05
9.53842e-06
7.05922e-06
4.63754e-06
2.55648e-06
1.08333e-06
3.07785e-07
4.77158e-08
3.1062e-09
8.33241e-11
3.37589e-06
3.35218e-06
3.30358e-06
3.22777e-06
3.1214e-06
2.9802e-06
2.79949e-06
2.57483e-06
2.30336e-06
1.98575e-06
1.62888e-06
1.2488e-06
8.7253e-07
5.36057e-07
2.75241e-07
1.09993e-07
3.10967e-08
5.56033e-09
5.85558e-10
4.58025e-11
5.91738e-07
5.86728e-07
5.76501e-07
5.60652e-07
5.38619e-07
5.09744e-07
4.73389e-07
4.29123e-07
3.77e-07
3.17924e-07
2.54048e-07
1.89051e-07
1.28e-07
7.6451e-08
3.86937e-08
1.5788e-08
4.91476e-09
1.11941e-09
1.92389e-10
3.2397e-11
1.162e-07
1.15086e-07
1.12821e-07
1.09332e-07
1.04521e-07
9.82872e-08
9.05485e-08
8.12886e-08
7.06108e-08
5.88019e-08
4.63856e-08
3.41317e-08
2.29747e-08
1.38109e-08
7.20829e-09
3.17054e-09
1.14773e-09
3.42613e-10
9.05942e-11
2.60737e-11
2.60114e-08
2.57439e-08
2.52012e-08
2.43695e-08
2.32309e-08
2.17686e-08
1.99736e-08
1.7854e-08
1.54465e-08
1.28274e-08
1.01201e-08
7.49015e-09
5.1235e-09
3.18497e-09
1.76865e-09
8.65329e-10
3.72096e-10
1.4408e-10
5.41313e-11
2.25899e-11
6.72647e-09
6.65566e-09
6.51235e-09
6.29353e-09
5.99559e-09
5.61552e-09
5.15263e-09
4.61081e-09
4.00101e-09
3.34341e-09
2.66837e-09
2.01466e-09
1.42408e-09
9.32725e-10
5.61368e-10
3.0967e-10
1.58062e-10
7.6973e-11
3.79444e-11
2.04793e-11
2.02795e-09
2.00705e-09
1.96481e-09
1.9005e-09
1.81326e-09
1.70245e-09
1.56813e-09
1.41163e-09
1.23618e-09
1.04736e-09
8.53287e-10
6.64093e-10
4.90584e-10
3.42229e-10
2.24988e-10
1.39949e-10
8.35108e-11
4.91191e-11
2.963e-11
1.9119e-11
7.1659e-10
7.09669e-10
6.95701e-10
6.74466e-10
6.45719e-10
6.09288e-10
5.65215e-10
5.13925e-10
4.56395e-10
3.94291e-10
3.29998e-10
2.66485e-10
2.0696e-10
1.54346e-10
1.10716e-10
7.68862e-11
5.23652e-11
3.56761e-11
2.49028e-11
1.82047e-11
2.97239e-10
2.94668e-10
2.89482e-10
2.81605e-10
2.7095e-10
2.57453e-10
2.41123e-10
2.2209e-10
2.00667e-10
1.77387e-10
1.53022e-10
1.28546e-10
1.05035e-10
8.35243e-11
6.4835e-11
4.94372e-11
3.73972e-11
2.84273e-11
2.20146e-11
1.75718e-11
1.44318e-10
1.43251e-10
1.411e-10
1.37833e-10
1.33412e-10
1.2781e-10
1.2102e-10
1.13081e-10
1.04097e-10
9.42511e-11
8.38162e-11
7.31442e-11
6.26385e-11
5.27076e-11
4.37088e-11
3.58969e-11
2.93933e-11
2.41858e-11
2.01562e-11
1.71246e-11
8.12986e-11
8.08084e-11
7.98195e-11
7.83172e-11
7.62833e-11
7.37017e-11
7.05652e-11
6.68832e-11
6.26906e-11
5.80546e-11
5.30788e-11
4.79019e-11
4.26893e-11
3.76172e-11
3.28531e-11
2.85345e-11
2.47533e-11
2.15495e-11
1.89148e-11
1.68039e-11
5.23095e-11
5.20625e-11
5.15641e-11
5.08067e-11
4.97802e-11
4.84752e-11
4.68854e-11
4.50114e-11
4.28644e-11
4.04701e-11
3.78704e-11
3.51241e-11
3.23042e-11
2.94928e-11
2.67729e-11
2.42201e-11
2.18946e-11
1.98362e-11
1.80625e-11
1.65715e-11
3.76359e-11
3.75011e-11
3.72292e-11
3.68156e-11
3.62546e-11
3.55403e-11
3.46678e-11
3.36355e-11
3.24466e-11
3.11107e-11
2.96458e-11
2.80784e-11
2.64428e-11
2.47797e-11
2.31324e-11
2.15437e-11
2.00514e-11
1.86853e-11
1.74656e-11
1.64019e-11
2.95847e-11
2.95061e-11
2.93474e-11
2.91059e-11
2.87782e-11
2.83603e-11
2.78489e-11
2.72419e-11
2.65397e-11
2.57459e-11
2.48686e-11
2.39202e-11
2.29179e-11
2.18828e-11
2.08388e-11
1.98105e-11
1.88218e-11
1.78933e-11
1.70415e-11
1.62776e-11
2.4865e-11
2.48166e-11
2.47187e-11
2.45699e-11
2.43677e-11
2.41096e-11
2.37934e-11
2.34172e-11
2.29805e-11
2.24847e-11
2.19333e-11
2.13326e-11
2.06916e-11
2.00218e-11
1.93368e-11
1.86515e-11
1.79807e-11
1.73385e-11
1.67371e-11
1.61861e-11
2.19478e-11
2.19165e-11
2.18535e-11
2.17576e-11
2.16274e-11
2.14611e-11
2.12571e-11
2.1014e-11
2.07313e-11
2.04093e-11
2.00496e-11
1.96555e-11
1.9232e-11
1.87856e-11
1.83245e-11
1.78576e-11
1.73945e-11
1.69448e-11
1.65171e-11
1.61188e-11
2.0068e-11
2.00472e-11
2.00052e-11
1.99413e-11
1.98545e-11
1.97437e-11
1.96077e-11
1.94457e-11
1.92569e-11
1.90414e-11
1.88001e-11
1.85346e-11
1.82479e-11
1.79439e-11
1.76274e-11
1.73043e-11
1.69807e-11
1.6663e-11
1.63573e-11
1.60692e-11
1.88174e-11
1.88032e-11
1.87744e-11
1.87307e-11
1.86714e-11
1.85957e-11
1.85029e-11
1.83922e-11
1.82632e-11
1.81158e-11
1.79504e-11
1.77681e-11
1.75705e-11
1.73601e-11
1.714e-11
1.69138e-11
1.66858e-11
1.64601e-11
1.62411e-11
1.60327e-11
1.7965e-11
1.79551e-11
1.79351e-11
1.79046e-11
1.78633e-11
1.78107e-11
1.77461e-11
1.76692e-11
1.75795e-11
1.74771e-11
1.7362e-11
1.7235e-11
1.70972e-11
1.69499e-11
1.67954e-11
1.66359e-11
1.64743e-11
1.63135e-11
1.61564e-11
1.6006e-11
1.73737e-11
1.73667e-11
1.73525e-11
1.7331e-11
1.73019e-11
1.72648e-11
1.72193e-11
1.71652e-11
1.71021e-11
1.70301e-11
1.69493e-11
1.686e-11
1.67629e-11
1.66592e-11
1.655e-11
1.6437e-11
1.63222e-11
1.62074e-11
1.60948e-11
1.59863e-11
1.69582e-11
1.69532e-11
1.69431e-11
1.69278e-11
1.6907e-11
1.68806e-11
1.68483e-11
1.681e-11
1.67653e-11
1.67143e-11
1.66571e-11
1.65939e-11
1.65253e-11
1.64518e-11
1.63744e-11
1.62942e-11
1.62125e-11
1.61305e-11
1.60499e-11
1.5972e-11
1.66637e-11
1.66601e-11
1.66528e-11
1.66419e-11
1.6627e-11
1.66082e-11
1.65852e-11
1.65578e-11
1.6526e-11
1.64898e-11
1.64491e-11
1.64043e-11
1.63556e-11
1.63034e-11
1.62485e-11
1.61915e-11
1.61333e-11
1.6075e-11
1.60174e-11
1.59615e-11
1.64538e-11
1.64512e-11
1.6446e-11
1.64382e-11
1.64275e-11
1.6414e-11
1.63975e-11
1.6378e-11
1.63553e-11
1.63295e-11
1.63006e-11
1.62687e-11
1.62341e-11
1.61971e-11
1.61581e-11
1.61177e-11
1.60764e-11
1.60348e-11
1.59938e-11
1.59539e-11
1.63038e-11
1.6302e-11
1.62982e-11
1.62926e-11
1.62849e-11
1.62753e-11
1.62635e-11
1.62495e-11
1.62333e-11
1.6215e-11
1.61944e-11
1.61718e-11
1.61472e-11
1.6121e-11
1.60933e-11
1.60647e-11
1.60354e-11
1.60059e-11
1.59768e-11
1.59485e-11
1.61965e-11
1.61952e-11
1.61925e-11
1.61885e-11
1.6183e-11
1.61761e-11
1.61676e-11
1.61577e-11
1.61462e-11
1.61331e-11
1.61185e-11
1.61025e-11
1.60851e-11
1.60665e-11
1.6047e-11
1.60267e-11
1.6006e-11
1.59852e-11
1.59646e-11
1.59445e-11
1.61198e-11
1.61189e-11
1.6117e-11
1.61141e-11
1.61102e-11
1.61052e-11
1.60992e-11
1.60921e-11
1.60839e-11
1.60747e-11
1.60643e-11
1.6053e-11
1.60407e-11
1.60276e-11
1.60138e-11
1.59996e-11
1.5985e-11
1.59703e-11
1.59558e-11
1.59417e-11
1.60651e-11
1.60644e-11
1.60631e-11
1.6061e-11
1.60582e-11
1.60547e-11
1.60504e-11
1.60454e-11
1.60396e-11
1.60331e-11
1.60258e-11
1.60178e-11
1.60091e-11
1.59999e-11
1.59903e-11
1.59803e-11
1.597e-11
1.59597e-11
1.59496e-11
1.59397e-11
1.60262e-11
1.60257e-11
1.60247e-11
1.60233e-11
1.60213e-11
1.60188e-11
1.60158e-11
1.60123e-11
1.60082e-11
1.60036e-11
1.59984e-11
1.59928e-11
1.59868e-11
1.59803e-11
1.59736e-11
1.59666e-11
1.59594e-11
1.59522e-11
1.59451e-11
1.59382e-11
1.59986e-11
1.59983e-11
1.59976e-11
1.59965e-11
1.59952e-11
1.59934e-11
1.59913e-11
1.59888e-11
1.59859e-11
1.59827e-11
1.59791e-11
1.59752e-11
1.5971e-11
1.59665e-11
1.59618e-11
1.59569e-11
1.59519e-11
1.59469e-11
1.5942e-11
1.59372e-11
1.59791e-11
1.59789e-11
1.59784e-11
1.59777e-11
1.59767e-11
1.59755e-11
1.5974e-11
1.59723e-11
1.59703e-11
1.5968e-11
1.59655e-11
1.59628e-11
1.59598e-11
1.59567e-11
1.59535e-11
1.59501e-11
1.59467e-11
1.59432e-11
1.59398e-11
1.59365e-11
1.59655e-11
1.59653e-11
1.59649e-11
1.59644e-11
1.59638e-11
1.59629e-11
1.59619e-11
1.59607e-11
1.59593e-11
1.59577e-11
1.5956e-11
1.59541e-11
1.59521e-11
1.59499e-11
1.59477e-11
1.59454e-11
1.5943e-11
1.59406e-11
1.59383e-11
1.5936e-11
1.59559e-11
1.59558e-11
1.59555e-11
1.59552e-11
1.59547e-11
1.59541e-11
1.59534e-11
1.59526e-11
1.59516e-11
1.59505e-11
1.59493e-11
1.5948e-11
1.59467e-11
1.59452e-11
1.59436e-11
1.59421e-11
1.59404e-11
1.59388e-11
1.59372e-11
1.59357e-11
1.59492e-11
1.59492e-11
1.5949e-11
1.59488e-11
1.59484e-11
1.5948e-11
1.59475e-11
1.5947e-11
1.59463e-11
1.59456e-11
1.59447e-11
1.59439e-11
1.59429e-11
1.59419e-11
1.59409e-11
1.59398e-11
1.59387e-11
1.59376e-11
1.59365e-11
1.59354e-11
1.59446e-11
1.59446e-11
1.59445e-11
1.59443e-11
1.59441e-11
1.59438e-11
1.59435e-11
1.59431e-11
1.59426e-11
1.59421e-11
1.59416e-11
1.5941e-11
1.59403e-11
1.59396e-11
1.59389e-11
1.59382e-11
1.59375e-11
1.59367e-11
1.5936e-11
1.59352e-11
1.59415e-11
1.59415e-11
1.59414e-11
1.59413e-11
1.59411e-11
1.59409e-11
1.59407e-11
1.59404e-11
1.59401e-11
1.59398e-11
1.59394e-11
1.5939e-11
1.59386e-11
1.59381e-11
1.59376e-11
1.59371e-11
1.59366e-11
1.59361e-11
1.59356e-11
1.59351e-11
1.59393e-11
1.59393e-11
1.59393e-11
1.59392e-11
1.59391e-11
1.59389e-11
1.59388e-11
1.59386e-11
1.59384e-11
1.59382e-11
1.59379e-11
1.59376e-11
1.59374e-11
1.5937e-11
1.59367e-11
1.59364e-11
1.59361e-11
1.59357e-11
1.59354e-11
1.59351e-11
1.59379e-11
1.59379e-11
1.59378e-11
1.59378e-11
1.59377e-11
1.59376e-11
1.59375e-11
1.59374e-11
1.59373e-11
1.59371e-11
1.59369e-11
1.59367e-11
1.59365e-11
1.59363e-11
1.59361e-11
1.59359e-11
1.59357e-11
1.59354e-11
1.59352e-11
1.5935e-11
1.59369e-11
1.59369e-11
1.59369e-11
1.59368e-11
1.59368e-11
1.59367e-11
1.59367e-11
1.59366e-11
1.59365e-11
1.59364e-11
1.59363e-11
1.59361e-11
1.5936e-11
1.59359e-11
1.59357e-11
1.59356e-11
1.59354e-11
1.59353e-11
1.59351e-11
1.5935e-11
1.59363e-11
1.59362e-11
1.59362e-11
1.59362e-11
1.59362e-11
1.59361e-11
1.59361e-11
1.5936e-11
1.5936e-11
1.59359e-11
1.59358e-11
1.59357e-11
1.59356e-11
1.59356e-11
1.59355e-11
1.59354e-11
1.59353e-11
1.59351e-11
1.5935e-11
1.5935e-11
1.59358e-11
1.59358e-11
1.59358e-11
1.59358e-11
1.59358e-11
1.59358e-11
1.59357e-11
1.59357e-11
1.59356e-11
1.59356e-11
1.59355e-11
1.59355e-11
1.59354e-11
1.59354e-11
1.59353e-11
1.59352e-11
1.59351e-11
1.59351e-11
1.5935e-11
1.59349e-11
1.59356e-11
1.59356e-11
1.59356e-11
1.59356e-11
1.59356e-11
1.59355e-11
1.59355e-11
1.59355e-11
1.59355e-11
1.59354e-11
1.59354e-11
1.59353e-11
1.59353e-11
1.59352e-11
1.59352e-11
1.59351e-11
1.59351e-11
1.5935e-11
1.5935e-11
1.59349e-11
1.59355e-11
1.59355e-11
1.59355e-11
1.59355e-11
1.59355e-11
1.59354e-11
1.59354e-11
1.59354e-11
1.59354e-11
1.59353e-11
1.59353e-11
1.59353e-11
1.59352e-11
1.59352e-11
1.59351e-11
1.59351e-11
1.59351e-11
1.5935e-11
1.5935e-11
1.59349e-11
)
;

boundaryField
{
    topWall
    {
        type            zeroGradient;
    }
    bottomWall
    {
        type            zeroGradient;
    }
    sideWallL
    {
        type            symmetry;
    }
    sideWallR
    {
        type            zeroGradient;
    }
    frontAndBack
    {
        type            empty;
    }
}


// ************************************************************************* //
