/*--------------------------------*- C++ -*----------------------------------*\
  =========                 |
  \\      /  F ield         | OpenFOAM: The Open Source CFD Toolbox
   \\    /   O peration     | Website:  https://openfoam.org
    \\  /    A nd           | Version:  7
     \\/     M anipulation  |
\*---------------------------------------------------------------------------*/
FoamFile
{
    version     2.0;
    format      ascii;
    class       volScalarField;
    location    "25";
    object      rhot1;
}
// * * * * * * * * * * * * * * * * * * * * * * * * * * * * * * * * * * * * * //

dimensions      [1 -3 0 0 0 0 0];

internalField   nonuniform List<scalar> 
900
(
0.00674523
0.00673956
0.00672779
0.00670903
0.00668183
0.00664408
0.00659275
0.00652363
0.00643085
0.00630623
0.00613827
0.00591068
0.00560016
0.0051732
0.00458181
0.00376066
0.00264189
0.00127161
0.000192874
2.21744e-07
0.000501211
0.000499816
0.000496931
0.000492359
0.000485789
0.00047678
0.000464735
0.000448879
0.000428233
0.000401617
0.000367694
0.00032514
0.000273044
0.000211758
0.000144429
7.90369e-05
2.87917e-05
4.59834e-06
1.14153e-07
2.64091e-11
3.81169e-05
3.79266e-05
3.75344e-05
3.69174e-05
3.60403e-05
3.48553e-05
3.33027e-05
3.13131e-05
2.88139e-05
2.57423e-05
2.20703e-05
1.78457e-05
1.32503e-05
8.65883e-06
4.64356e-06
1.81201e-06
4.14709e-07
3.73261e-08
6.30593e-10
6.74186e-13
3.06294e-06
3.04052e-06
2.99457e-06
2.92284e-06
2.82207e-06
2.68815e-06
2.51651e-06
2.30285e-06
2.04446e-06
1.74226e-06
1.40365e-06
1.04577e-06
6.97398e-07
3.96305e-07
1.77921e-07
5.6068e-08
1.03018e-08
8.31608e-10
2.0252e-11
1.31433e-13
2.68567e-07
2.65997e-07
2.60754e-07
2.52638e-07
2.41374e-07
2.26652e-07
2.08193e-07
1.8586e-07
1.5982e-07
1.30746e-07
1.00027e-07
6.98633e-08
4.30591e-08
2.23139e-08
9.0757e-09
2.62921e-09
4.75531e-10
4.57512e-11
2.0673e-12
5.65371e-14
2.64935e-08
2.61874e-08
2.55655e-08
2.46106e-08
2.33004e-08
2.16144e-08
1.95427e-08
1.70998e-08
1.43408e-08
1.13789e-08
8.39441e-09
5.62397e-09
3.31555e-09
1.64912e-09
6.54933e-10
1.93778e-10
3.94657e-11
5.16896e-12
4.41674e-13
3.47057e-14
3.02175e-09
2.9821e-09
2.9019e-09
2.77959e-09
2.61349e-09
2.40258e-09
2.14782e-09
1.85363e-09
1.52964e-09
1.19194e-09
8.62842e-10
5.68205e-10
3.3142e-10
1.65631e-10
6.81768e-11
2.21376e-11
5.45926e-12
1.01283e-12
1.53038e-13
2.55935e-14
4.07594e-10
4.01826e-10
3.90199e-10
3.72572e-10
3.48825e-10
3.18992e-10
2.8342e-10
2.42967e-10
1.99184e-10
1.54395e-10
1.11565e-10
7.38544e-11
4.3867e-11
2.28274e-11
1.01482e-11
3.76948e-12
1.15865e-12
3.01754e-13
7.34986e-14
2.09573e-14
6.61299e-11
6.51654e-11
6.32262e-11
6.02987e-11
5.63783e-11
5.14892e-11
4.57094e-11
3.91981e-11
3.22175e-11
2.51365e-11
1.84032e-11
1.24743e-11
7.71218e-12
4.28231e-12
2.10683e-12
9.1191e-13
3.50053e-13
1.23841e-13
4.41728e-14
1.82973e-14
1.30467e-11
1.28585e-11
1.24809e-11
1.19123e-11
1.11536e-11
1.02114e-11
9.10239e-12
7.8579e-12
6.52692e-12
5.17626e-12
3.88511e-12
2.73335e-12
1.78512e-12
1.07306e-12
5.90815e-13
2.98812e-13
1.41213e-13
6.48811e-14
3.09893e-14
1.66478e-14
3.14634e-12
3.1032e-12
3.01669e-12
2.88663e-12
2.71336e-12
2.49849e-12
2.24575e-12
1.9619e-12
1.65732e-12
1.34598e-12
1.04439e-12
7.69441e-13
5.35334e-13
3.50581e-13
2.16314e-13
1.26785e-13
7.19458e-14
4.08288e-14
2.41852e-14
1.55697e-14
9.27966e-13
9.16343e-13
8.93041e-13
8.58015e-13
8.11344e-13
7.53414e-13
6.85125e-13
6.08099e-13
5.24828e-13
4.38684e-13
3.53706e-13
2.74146e-13
2.03806e-13
1.45354e-13
9.98536e-14
6.67051e-14
4.40405e-14
2.93868e-14
2.03128e-14
1.48388e-14
3.33649e-13
3.2999e-13
3.22653e-13
3.11615e-13
2.96886e-13
2.78558e-13
2.56861e-13
2.32225e-13
2.05325e-13
1.77088e-13
1.48657e-13
1.21278e-13
9.61418e-14
7.41999e-14
5.60175e-14
4.17095e-14
3.09868e-14
2.3289e-14
1.79488e-14
1.43302e-14
1.45218e-13
1.43886e-13
1.41213e-13
1.37188e-13
1.31804e-13
1.25081e-13
1.17079e-13
1.07923e-13
9.78131e-14
8.7038e-14
7.59623e-14
6.50023e-14
5.45811e-14
4.5074e-14
3.67581e-14
2.97789e-14
2.41456e-14
1.97545e-14
1.64303e-14
1.39697e-14
7.55457e-14
7.49931e-14
7.3883e-14
7.22082e-14
6.99626e-14
6.71472e-14
6.37774e-14
5.98901e-14
5.5551e-14
5.08579e-14
4.59405e-14
4.09534e-14
3.60633e-14
3.14311e-14
2.71932e-14
2.34462e-14
2.02391e-14
1.75745e-14
1.5418e-14
1.37108e-14
4.60366e-14
4.57792e-14
4.52619e-14
4.44802e-14
4.34292e-14
4.21066e-14
4.05148e-14
3.86649e-14
3.65792e-14
3.42937e-14
3.18583e-14
2.93361e-14
2.67984e-14
2.43191e-14
2.19675e-14
1.98009e-14
1.786e-14
1.61667e-14
1.47247e-14
1.35232e-14
3.19974e-14
3.18653e-14
3.15994e-14
3.1197e-14
3.06548e-14
2.997e-14
2.91421e-14
2.81737e-14
2.70724e-14
2.58523e-14
2.4534e-14
2.3145e-14
2.17181e-14
2.02895e-14
1.88956e-14
1.75698e-14
1.63399e-14
1.52262e-14
1.42404e-14
1.33863e-14
2.46413e-14
2.45677e-14
2.44195e-14
2.41949e-14
2.38918e-14
2.35079e-14
2.30419e-14
2.24939e-14
2.18666e-14
2.11654e-14
2.03994e-14
1.95813e-14
1.87272e-14
1.78557e-14
1.69867e-14
1.61399e-14
1.53333e-14
1.4582e-14
1.38972e-14
1.3286e-14
2.04741e-14
2.04304e-14
2.03421e-14
2.02084e-14
2.00275e-14
1.9798e-14
1.95187e-14
1.9189e-14
1.88095e-14
1.83824e-14
1.7912e-14
1.74044e-14
1.6868e-14
1.63128e-14
1.575e-14
1.51916e-14
1.4649e-14
1.41327e-14
1.36516e-14
1.32125e-14
1.79633e-14
1.79359e-14
1.78806e-14
1.77967e-14
1.76832e-14
1.7539e-14
1.73631e-14
1.71548e-14
1.69143e-14
1.66424e-14
1.6341e-14
1.60134e-14
1.5664e-14
1.52985e-14
1.49236e-14
1.45465e-14
1.41747e-14
1.38152e-14
1.34747e-14
1.31584e-14
1.63764e-14
1.63585e-14
1.63225e-14
1.62677e-14
1.61937e-14
1.60995e-14
1.59844e-14
1.58481e-14
1.56902e-14
1.5511e-14
1.53117e-14
1.50938e-14
1.486e-14
1.46136e-14
1.43586e-14
1.40996e-14
1.38414e-14
1.35889e-14
1.33466e-14
1.31187e-14
1.53364e-14
1.53244e-14
1.53001e-14
1.52633e-14
1.52135e-14
1.51502e-14
1.50729e-14
1.49811e-14
1.48746e-14
1.47537e-14
1.46187e-14
1.44706e-14
1.43111e-14
1.4142e-14
1.3966e-14
1.37859e-14
1.3605e-14
1.34266e-14
1.32538e-14
1.30896e-14
1.4636e-14
1.46277e-14
1.46111e-14
1.45858e-14
1.45516e-14
1.45081e-14
1.4455e-14
1.4392e-14
1.43188e-14
1.42357e-14
1.41427e-14
1.40405e-14
1.39301e-14
1.38127e-14
1.369e-14
1.35638e-14
1.34363e-14
1.33097e-14
1.31864e-14
1.30683e-14
1.41548e-14
1.4149e-14
1.41374e-14
1.41198e-14
1.4096e-14
1.40657e-14
1.40287e-14
1.39848e-14
1.39339e-14
1.38759e-14
1.38112e-14
1.37399e-14
1.36628e-14
1.35806e-14
1.34944e-14
1.34055e-14
1.33154e-14
1.32255e-14
1.31375e-14
1.30527e-14
1.38196e-14
1.38155e-14
1.38073e-14
1.37949e-14
1.37781e-14
1.37568e-14
1.37307e-14
1.36999e-14
1.36641e-14
1.36235e-14
1.3578e-14
1.3528e-14
1.34738e-14
1.34159e-14
1.33552e-14
1.32925e-14
1.32286e-14
1.31648e-14
1.3102e-14
1.30414e-14
1.35837e-14
1.35808e-14
1.3575e-14
1.35662e-14
1.35543e-14
1.35392e-14
1.35208e-14
1.3499e-14
1.34738e-14
1.34451e-14
1.3413e-14
1.33777e-14
1.33395e-14
1.32987e-14
1.32559e-14
1.32115e-14
1.31663e-14
1.31211e-14
1.30764e-14
1.30332e-14
1.34168e-14
1.34148e-14
1.34106e-14
1.34044e-14
1.33959e-14
1.33852e-14
1.33721e-14
1.33567e-14
1.33388e-14
1.33185e-14
1.32958e-14
1.32709e-14
1.3244e-14
1.32152e-14
1.31849e-14
1.31536e-14
1.31217e-14
1.30896e-14
1.3058e-14
1.30273e-14
1.32983e-14
1.32968e-14
1.32939e-14
1.32894e-14
1.32834e-14
1.32758e-14
1.32665e-14
1.32555e-14
1.32429e-14
1.32285e-14
1.32125e-14
1.31949e-14
1.31759e-14
1.31556e-14
1.31343e-14
1.31122e-14
1.30897e-14
1.30671e-14
1.30447e-14
1.3023e-14
1.32141e-14
1.3213e-14
1.32109e-14
1.32077e-14
1.32034e-14
1.3198e-14
1.31914e-14
1.31837e-14
1.31747e-14
1.31646e-14
1.31533e-14
1.31409e-14
1.31275e-14
1.31132e-14
1.30982e-14
1.30827e-14
1.30669e-14
1.3051e-14
1.30352e-14
1.30199e-14
1.31542e-14
1.31534e-14
1.31519e-14
1.31497e-14
1.31466e-14
1.31428e-14
1.31382e-14
1.31327e-14
1.31263e-14
1.31192e-14
1.31113e-14
1.31025e-14
1.30931e-14
1.30831e-14
1.30726e-14
1.30617e-14
1.30506e-14
1.30395e-14
1.30285e-14
1.30177e-14
1.31117e-14
1.31112e-14
1.31101e-14
1.31085e-14
1.31064e-14
1.31037e-14
1.31004e-14
1.30965e-14
1.30921e-14
1.30871e-14
1.30815e-14
1.30754e-14
1.30688e-14
1.30618e-14
1.30545e-14
1.30469e-14
1.30391e-14
1.30314e-14
1.30237e-14
1.30162e-14
1.30817e-14
1.30813e-14
1.30806e-14
1.30794e-14
1.30779e-14
1.3076e-14
1.30737e-14
1.3071e-14
1.30679e-14
1.30644e-14
1.30605e-14
1.30562e-14
1.30517e-14
1.30468e-14
1.30417e-14
1.30364e-14
1.3031e-14
1.30256e-14
1.30203e-14
1.30151e-14
1.30605e-14
1.30603e-14
1.30597e-14
1.3059e-14
1.30579e-14
1.30566e-14
1.3055e-14
1.30531e-14
1.30509e-14
1.30484e-14
1.30457e-14
1.30428e-14
1.30396e-14
1.30362e-14
1.30327e-14
1.3029e-14
1.30253e-14
1.30216e-14
1.30179e-14
1.30143e-14
1.30457e-14
1.30455e-14
1.30451e-14
1.30446e-14
1.30438e-14
1.30429e-14
1.30418e-14
1.30405e-14
1.3039e-14
1.30373e-14
1.30354e-14
1.30334e-14
1.30312e-14
1.30288e-14
1.30264e-14
1.30239e-14
1.30213e-14
1.30188e-14
1.30162e-14
1.30138e-14
1.30353e-14
1.30352e-14
1.30349e-14
1.30346e-14
1.3034e-14
1.30334e-14
1.30326e-14
1.30317e-14
1.30307e-14
1.30295e-14
1.30282e-14
1.30268e-14
1.30253e-14
1.30237e-14
1.3022e-14
1.30203e-14
1.30186e-14
1.30168e-14
1.30151e-14
1.30134e-14
1.30281e-14
1.3028e-14
1.30279e-14
1.30276e-14
1.30272e-14
1.30268e-14
1.30263e-14
1.30256e-14
1.30249e-14
1.30241e-14
1.30232e-14
1.30223e-14
1.30213e-14
1.30202e-14
1.3019e-14
1.30179e-14
1.30167e-14
1.30155e-14
1.30143e-14
1.30131e-14
1.30231e-14
1.30231e-14
1.3023e-14
1.30228e-14
1.30225e-14
1.30222e-14
1.30219e-14
1.30214e-14
1.3021e-14
1.30204e-14
1.30198e-14
1.30192e-14
1.30185e-14
1.30177e-14
1.30169e-14
1.30162e-14
1.30153e-14
1.30145e-14
1.30137e-14
1.3013e-14
1.30197e-14
1.30197e-14
1.30196e-14
1.30195e-14
1.30193e-14
1.30191e-14
1.30189e-14
1.30186e-14
1.30182e-14
1.30179e-14
1.30175e-14
1.3017e-14
1.30165e-14
1.3016e-14
1.30155e-14
1.3015e-14
1.30144e-14
1.30139e-14
1.30134e-14
1.30128e-14
1.30174e-14
1.30174e-14
1.30173e-14
1.30172e-14
1.30171e-14
1.3017e-14
1.30168e-14
1.30166e-14
1.30164e-14
1.30161e-14
1.30159e-14
1.30156e-14
1.30152e-14
1.30149e-14
1.30146e-14
1.30142e-14
1.30138e-14
1.30135e-14
1.30131e-14
1.30128e-14
1.30158e-14
1.30158e-14
1.30157e-14
1.30157e-14
1.30156e-14
1.30155e-14
1.30154e-14
1.30153e-14
1.30151e-14
1.3015e-14
1.30148e-14
1.30146e-14
1.30144e-14
1.30141e-14
1.30139e-14
1.30137e-14
1.30134e-14
1.30132e-14
1.30129e-14
1.30127e-14
1.30147e-14
1.30147e-14
1.30147e-14
1.30147e-14
1.30146e-14
1.30146e-14
1.30145e-14
1.30144e-14
1.30143e-14
1.30142e-14
1.30141e-14
1.30139e-14
1.30138e-14
1.30136e-14
1.30135e-14
1.30133e-14
1.30131e-14
1.3013e-14
1.30128e-14
1.30127e-14
1.3014e-14
1.3014e-14
1.3014e-14
1.3014e-14
1.3014e-14
1.30139e-14
1.30139e-14
1.30138e-14
1.30137e-14
1.30137e-14
1.30136e-14
1.30135e-14
1.30134e-14
1.30133e-14
1.30132e-14
1.30131e-14
1.3013e-14
1.30129e-14
1.30127e-14
1.30126e-14
1.30136e-14
1.30136e-14
1.30136e-14
1.30136e-14
1.30135e-14
1.30135e-14
1.30135e-14
1.30134e-14
1.30134e-14
1.30133e-14
1.30133e-14
1.30132e-14
1.30131e-14
1.30131e-14
1.3013e-14
1.30129e-14
1.30128e-14
1.30128e-14
1.30127e-14
1.30126e-14
1.30133e-14
1.30133e-14
1.30133e-14
1.30133e-14
1.30133e-14
1.30133e-14
1.30132e-14
1.30132e-14
1.30132e-14
1.30131e-14
1.30131e-14
1.30131e-14
1.3013e-14
1.30129e-14
1.30129e-14
1.30128e-14
1.30128e-14
1.30127e-14
1.30127e-14
1.30126e-14
1.30132e-14
1.30132e-14
1.30132e-14
1.30132e-14
1.30132e-14
1.30132e-14
1.30131e-14
1.30131e-14
1.30131e-14
1.30131e-14
1.3013e-14
1.3013e-14
1.30129e-14
1.30129e-14
1.30128e-14
1.30128e-14
1.30128e-14
1.30127e-14
1.30127e-14
1.30126e-14
)
;

boundaryField
{
    topWall
    {
        type            zeroGradient;
    }
    bottomWall
    {
        type            zeroGradient;
    }
    sideWallL
    {
        type            symmetry;
    }
    sideWallR
    {
        type            calculated;
        value           uniform 0;
    }
    frontAndBack
    {
        type            empty;
    }
}


// ************************************************************************* //
