/*--------------------------------*- C++ -*----------------------------------*\
  =========                 |
  \\      /  F ield         | OpenFOAM: The Open Source CFD Toolbox
   \\    /   O peration     | Website:  https://openfoam.org
    \\  /    A nd           | Version:  7
     \\/     M anipulation  |
\*---------------------------------------------------------------------------*/
FoamFile
{
    version     2.0;
    format      ascii;
    class       volScalarField;
    location    "25";
    object      rhot2;
}
// * * * * * * * * * * * * * * * * * * * * * * * * * * * * * * * * * * * * * //

dimensions      [1 -3 0 0 0 0 0];

internalField   nonuniform List<scalar> 
900
(
1.3214e-06
1.31923e-06
1.31475e-06
1.30761e-06
1.29729e-06
1.28304e-06
1.26378e-06
1.23807e-06
1.20396e-06
1.15886e-06
1.09941e-06
1.02127e-06
9.19187e-07
7.87382e-07
6.21271e-07
4.22527e-07
2.12088e-07
5.08919e-08
1.28222e-09
2.35643e-15
8.23072e-09
8.18615e-09
8.09432e-09
7.94981e-09
7.74438e-09
7.4669e-09
7.10359e-09
6.63872e-09
6.05635e-09
5.34398e-09
4.49901e-09
3.53934e-09
2.51755e-09
1.53322e-09
7.26689e-10
2.24108e-10
3.12374e-11
8.71256e-13
6.43491e-16
5.24768e-23
5.37119e-11
5.31905e-11
5.21241e-11
5.04674e-11
4.81569e-11
4.5119e-11
4.12843e-11
3.66126e-11
3.11314e-11
2.49885e-11
1.85095e-11
1.223e-11
6.84228e-12
2.98384e-12
8.84842e-13
1.41109e-13
7.94675e-15
7.2497e-17
2.53692e-20
4.1532e-26
3.90619e-13
3.85069e-13
3.7381e-13
3.56561e-13
3.32998e-13
3.02896e-13
2.66344e-13
2.24043e-13
1.77651e-13
1.30055e-13
8.53346e-14
4.80685e-14
2.18124e-14
7.24413e-15
1.51923e-15
1.59763e-16
5.86778e-18
4.33804e-20
3.11168e-23
1.73257e-27
3.37101e-15
3.30846e-15
3.18261e-15
2.99246e-15
2.73801e-15
2.42201e-15
2.05248e-15
1.64526e-15
1.2259e-15
8.28829e-16
4.91711e-16
2.44238e-16
9.50586e-17
2.63827e-17
4.56574e-18
4.07782e-19
1.45432e-20
1.51763e-22
3.65008e-25
3.37558e-28
3.66463e-17
3.5826e-17
3.41877e-17
3.17442e-17
2.85353e-17
2.46508e-17
2.0257e-17
1.56159e-17
1.10828e-17
7.06048e-18
3.90249e-18
1.78766e-18
6.38196e-19
1.63582e-19
2.70398e-20
2.51896e-21
1.13419e-22
2.16522e-24
1.81101e-26
1.31276e-28
5.29332e-19
5.1589e-19
4.89217e-19
4.49867e-19
3.98994e-19
3.38684e-19
2.72252e-19
2.04337e-19
1.40542e-19
8.64431e-20
4.60597e-20
2.04084e-20
7.13845e-21
1.8478e-21
3.27787e-22
3.66484e-23
2.40027e-24
9.05779e-26
2.30994e-27
7.28702e-29
1.06177e-20
1.03272e-20
9.75352e-21
8.91412e-21
7.84145e-21
6.58871e-21
5.23378e-21
3.87772e-21
2.63348e-21
1.60357e-21
8.51665e-22
3.81373e-22
1.38273e-22
3.87525e-23
7.99504e-24
1.16329e-24
1.17268e-25
8.59374e-27
5.572e-28
4.95415e-29
3.05708e-22
2.97093e-22
2.80134e-22
2.5545e-22
2.24127e-22
1.87858e-22
1.49002e-22
1.10484e-22
7.54253e-23
4.6528e-23
2.53592e-23
1.18968e-23
4.6664e-24
1.48529e-24
3.73751e-25
7.33747e-26
1.14282e-26
1.52486e-27
2.08088e-28
3.81273e-29
1.29068e-23
1.25473e-23
1.18406e-23
1.08143e-23
9.51528e-24
8.01462e-24
6.40888e-24
4.81506e-24
3.35615e-24
2.13795e-24
1.2236e-24
6.17543e-25
2.69719e-25
1.00294e-25
3.14633e-26
8.37937e-27
1.96058e-27
4.35967e-28
1.04975e-28
3.17769e-29
8.07299e-25
7.85935e-25
7.43935e-25
6.82895e-25
6.05519e-25
5.15841e-25
4.19304e-25
3.22486e-25
2.32356e-25
1.5509e-25
9.47466e-26
5.23443e-26
2.58818e-26
1.13838e-26
4.46417e-27
1.58685e-27
5.30967e-28
1.7818e-28
6.51058e-29
2.79292e-29
7.49014e-26
7.30923e-26
6.95299e-26
6.43373e-26
5.77221e-26
4.99954e-26
4.15795e-26
3.29913e-26
2.47935e-26
1.75114e-26
1.15348e-26
7.03922e-27
3.96364e-27
2.06058e-27
9.97167e-28
4.57747e-28
2.0575e-28
9.4544e-29
4.65341e-29
2.54574e-29
1.02475e-26
1.00311e-26
9.60382e-27
8.97803e-27
8.17479e-27
7.22616e-27
6.17648e-27
5.08152e-27
4.00434e-27
3.00772e-27
2.14423e-27
1.44686e-27
9.23941e-28
5.60554e-28
3.26168e-28
1.84959e-28
1.0453e-28
6.0444e-29
3.66799e-29
2.3803e-29
2.03974e-27
2.0038e-27
1.9326e-27
1.82769e-27
1.69182e-27
1.52926e-27
1.34614e-27
1.15046e-27
9.51694e-28
7.59952e-28
5.84654e-28
4.33121e-28
3.09472e-28
2.14233e-28
1.44828e-28
9.67157e-29
6.47146e-29
4.40576e-29
3.09476e-29
2.26631e-29
5.76158e-28
5.68084e-28
5.52033e-28
5.28235e-28
4.97117e-28
4.59389e-28
4.16117e-28
3.68765e-28
3.19167e-28
2.69416e-28
2.21654e-28
1.77812e-28
1.39352e-28
1.0709e-28
8.11594e-29
6.11123e-29
4.61203e-29
3.51985e-29
2.73872e-29
2.18613e-29
2.21825e-28
2.19458e-28
2.14737e-28
2.07696e-28
1.98407e-28
1.87006e-28
1.73713e-28
1.58855e-28
1.42867e-28
1.26281e-28
1.0969e-28
9.36886e-29
7.88105e-29
6.54659e-29
5.39029e-29
4.41996e-29
3.62859e-29
2.99866e-29
2.50695e-29
2.12888e-29
1.10341e-28
1.09474e-28
1.07739e-28
1.05139e-28
1.01682e-28
9.73948e-29
9.23281e-29
8.65648e-29
8.02259e-29
7.34704e-29
6.64893e-29
5.94926e-29
5.26906e-29
4.62733e-29
4.03929e-29
3.51511e-29
3.05962e-29
2.67281e-29
2.35089e-29
2.0876e-29
6.69335e-29
6.65537e-29
6.57922e-29
6.4646e-29
6.31136e-29
6.11979e-29
5.89098e-29
5.62718e-29
5.33211e-29
5.01116e-29
4.67126e-29
4.32068e-29
3.9684e-29
3.62348e-29
3.29422e-29
2.98753e-29
2.70845e-29
2.45999e-29
2.24323e-29
2.05762e-29
4.69874e-29
4.67967e-29
4.64135e-29
4.58351e-29
4.50586e-29
4.40821e-29
4.29067e-29
4.15381e-29
3.99885e-29
3.82776e-29
3.64331e-29
3.44905e-29
3.24914e-29
3.04806e-29
2.85036e-29
2.66026e-29
2.48139e-29
2.31656e-29
2.16767e-29
2.03575e-29
3.66062e-29
3.65e-29
3.62865e-29
3.59636e-29
3.55288e-29
3.49798e-29
3.43154e-29
3.35365e-29
3.26469e-29
3.16544e-29
3.05707e-29
2.94124e-29
2.81998e-29
2.69567e-29
2.57082e-29
2.44799e-29
2.32958e-29
2.21769e-29
2.114e-29
2.01976e-29
3.06835e-29
3.06198e-29
3.04915e-29
3.02973e-29
3.00354e-29
2.97037e-29
2.9301e-29
2.88267e-29
2.82818e-29
2.76695e-29
2.69951e-29
2.62668e-29
2.54952e-29
2.46934e-29
2.3876e-29
2.30585e-29
2.22565e-29
2.14846e-29
2.07558e-29
2.00806e-29
2.70708e-29
2.70304e-29
2.6949e-29
2.68258e-29
2.66593e-29
2.64483e-29
2.61915e-29
2.58882e-29
2.55385e-29
2.51437e-29
2.47063e-29
2.42306e-29
2.37225e-29
2.31896e-29
2.26404e-29
2.20848e-29
2.15328e-29
2.09945e-29
2.04792e-29
1.99951e-29
2.47579e-29
2.47313e-29
2.46776e-29
2.45963e-29
2.44865e-29
2.43472e-29
2.41774e-29
2.39766e-29
2.37446e-29
2.34818e-29
2.31897e-29
2.28705e-29
2.25278e-29
2.21659e-29
2.17904e-29
2.14073e-29
2.10233e-29
2.06452e-29
2.02796e-29
1.99325e-29
2.32252e-29
2.32071e-29
2.31707e-29
2.31156e-29
2.30412e-29
2.29467e-29
2.28316e-29
2.26954e-29
2.25378e-29
2.23591e-29
2.21599e-29
2.19418e-29
2.17067e-29
2.14574e-29
2.11974e-29
2.09307e-29
2.06618e-29
2.03951e-29
2.01354e-29
1.9887e-29
2.21842e-29
2.21718e-29
2.21466e-29
2.21086e-29
2.20572e-29
2.1992e-29
2.19126e-29
2.18186e-29
2.17099e-29
2.15864e-29
2.14488e-29
2.12978e-29
2.11347e-29
2.09614e-29
2.078e-29
2.05933e-29
2.04041e-29
2.02157e-29
2.00313e-29
1.98538e-29
2.14653e-29
2.14565e-29
2.1439e-29
2.14124e-29
2.13764e-29
2.13309e-29
2.12755e-29
2.121e-29
2.11341e-29
2.10481e-29
2.09521e-29
2.08468e-29
2.07329e-29
2.06116e-29
2.04846e-29
2.03534e-29
2.02202e-29
2.0087e-29
1.99562e-29
1.98298e-29
2.0963e-29
2.09569e-29
2.09445e-29
2.09258e-29
2.09005e-29
2.08685e-29
2.08295e-29
2.07835e-29
2.07303e-29
2.067e-29
2.06027e-29
2.05289e-29
2.04491e-29
2.0364e-29
2.02748e-29
2.01826e-29
2.00887e-29
1.99947e-29
1.99021e-29
1.98124e-29
2.06097e-29
2.06054e-29
2.05966e-29
2.05834e-29
2.05655e-29
2.05429e-29
2.05155e-29
2.04831e-29
2.04456e-29
2.04032e-29
2.0356e-29
2.03041e-29
2.02481e-29
2.01884e-29
2.01257e-29
2.00609e-29
1.99949e-29
1.99287e-29
1.98634e-29
1.98e-29
2.03603e-29
2.03572e-29
2.0351e-29
2.03416e-29
2.0329e-29
2.0313e-29
2.02937e-29
2.02708e-29
2.02445e-29
2.02146e-29
2.01814e-29
2.0145e-29
2.01057e-29
2.00638e-29
2.00199e-29
1.99744e-29
1.99281e-29
1.98816e-29
1.98357e-29
1.9791e-29
2.01839e-29
2.01817e-29
2.01773e-29
2.01707e-29
2.01618e-29
2.01505e-29
2.01368e-29
2.01207e-29
2.01022e-29
2.00813e-29
2.0058e-29
2.00324e-29
2.00049e-29
1.99756e-29
1.99449e-29
1.99131e-29
1.98807e-29
1.98481e-29
1.98159e-29
1.97846e-29
2.00592e-29
2.00577e-29
2.00546e-29
2.00499e-29
2.00436e-29
2.00357e-29
2.00261e-29
2.00148e-29
2.00018e-29
1.99871e-29
1.99708e-29
1.99529e-29
1.99337e-29
1.99133e-29
1.98918e-29
1.98697e-29
1.98471e-29
1.98244e-29
1.9802e-29
1.97801e-29
1.99713e-29
1.99702e-29
1.9968e-29
1.99647e-29
1.99603e-29
1.99547e-29
1.9948e-29
1.99401e-29
1.9931e-29
1.99207e-29
1.99094e-29
1.98969e-29
1.98836e-29
1.98693e-29
1.98545e-29
1.98391e-29
1.98234e-29
1.98077e-29
1.97921e-29
1.97769e-29
1.99094e-29
1.99087e-29
1.99071e-29
1.99048e-29
1.99017e-29
1.98979e-29
1.98932e-29
1.98876e-29
1.98813e-29
1.98742e-29
1.98663e-29
1.98577e-29
1.98484e-29
1.98385e-29
1.98282e-29
1.98176e-29
1.98068e-29
1.97959e-29
1.97852e-29
1.97747e-29
1.98661e-29
1.98656e-29
1.98645e-29
1.98629e-29
1.98607e-29
1.9858e-29
1.98548e-29
1.98509e-29
1.98465e-29
1.98416e-29
1.98362e-29
1.98302e-29
1.98238e-29
1.9817e-29
1.98099e-29
1.98026e-29
1.97952e-29
1.97877e-29
1.97803e-29
1.97731e-29
1.98359e-29
1.98355e-29
1.98347e-29
1.98336e-29
1.98321e-29
1.98303e-29
1.9828e-29
1.98254e-29
1.98223e-29
1.98189e-29
1.98152e-29
1.98111e-29
1.98067e-29
1.98021e-29
1.97972e-29
1.97922e-29
1.97871e-29
1.9782e-29
1.97769e-29
1.9772e-29
1.98149e-29
1.98146e-29
1.98141e-29
1.98133e-29
1.98123e-29
1.9811e-29
1.98095e-29
1.98076e-29
1.98056e-29
1.98032e-29
1.98007e-29
1.97979e-29
1.97949e-29
1.97917e-29
1.97884e-29
1.9785e-29
1.97815e-29
1.97781e-29
1.97746e-29
1.97713e-29
1.98004e-29
1.98002e-29
1.97998e-29
1.97993e-29
1.97986e-29
1.97977e-29
1.97967e-29
1.97954e-29
1.9794e-29
1.97924e-29
1.97907e-29
1.97888e-29
1.97867e-29
1.97846e-29
1.97824e-29
1.978e-29
1.97777e-29
1.97753e-29
1.9773e-29
1.97708e-29
1.97904e-29
1.97903e-29
1.97901e-29
1.97897e-29
1.97892e-29
1.97886e-29
1.97879e-29
1.97871e-29
1.97861e-29
1.9785e-29
1.97838e-29
1.97826e-29
1.97812e-29
1.97797e-29
1.97782e-29
1.97767e-29
1.97751e-29
1.97735e-29
1.97719e-29
1.97704e-29
1.97836e-29
1.97835e-29
1.97834e-29
1.97831e-29
1.97828e-29
1.97824e-29
1.97819e-29
1.97813e-29
1.97807e-29
1.978e-29
1.97792e-29
1.97783e-29
1.97774e-29
1.97764e-29
1.97754e-29
1.97744e-29
1.97733e-29
1.97722e-29
1.97712e-29
1.97702e-29
1.9779e-29
1.9779e-29
1.97789e-29
1.97787e-29
1.97785e-29
1.97782e-29
1.97779e-29
1.97775e-29
1.97771e-29
1.97766e-29
1.9776e-29
1.97755e-29
1.97748e-29
1.97742e-29
1.97735e-29
1.97728e-29
1.97721e-29
1.97714e-29
1.97707e-29
1.977e-29
1.97759e-29
1.97759e-29
1.97758e-29
1.97757e-29
1.97756e-29
1.97754e-29
1.97752e-29
1.97749e-29
1.97746e-29
1.97743e-29
1.97739e-29
1.97735e-29
1.97731e-29
1.97727e-29
1.97722e-29
1.97718e-29
1.97713e-29
1.97708e-29
1.97703e-29
1.97699e-29
1.97739e-29
1.97739e-29
1.97738e-29
1.97738e-29
1.97737e-29
1.97735e-29
1.97734e-29
1.97732e-29
1.9773e-29
1.97728e-29
1.97725e-29
1.97723e-29
1.9772e-29
1.97717e-29
1.97714e-29
1.97711e-29
1.97708e-29
1.97704e-29
1.97701e-29
1.97698e-29
1.97726e-29
1.97726e-29
1.97726e-29
1.97725e-29
1.97725e-29
1.97724e-29
1.97723e-29
1.97721e-29
1.9772e-29
1.97718e-29
1.97717e-29
1.97715e-29
1.97713e-29
1.97711e-29
1.97709e-29
1.97706e-29
1.97704e-29
1.97702e-29
1.977e-29
1.97698e-29
1.97719e-29
1.97719e-29
1.97718e-29
1.97718e-29
1.97717e-29
1.97717e-29
1.97716e-29
1.97715e-29
1.97714e-29
1.97713e-29
1.97712e-29
1.9771e-29
1.97709e-29
1.97707e-29
1.97706e-29
1.97704e-29
1.97702e-29
1.97701e-29
1.97699e-29
1.97697e-29
1.97715e-29
1.97715e-29
1.97715e-29
1.97715e-29
1.97714e-29
1.97714e-29
1.97713e-29
1.97712e-29
1.97711e-29
1.9771e-29
1.97709e-29
1.97708e-29
1.97707e-29
1.97706e-29
1.97704e-29
1.97703e-29
1.97701e-29
1.977e-29
1.97699e-29
1.97697e-29
)
;

boundaryField
{
    topWall
    {
        type            zeroGradient;
    }
    bottomWall
    {
        type            zeroGradient;
    }
    sideWallL
    {
        type            symmetry;
    }
    sideWallR
    {
        type            zeroGradient;
    }
    frontAndBack
    {
        type            empty;
    }
}


// ************************************************************************* //
