/*--------------------------------*- C++ -*----------------------------------*\
  =========                 |
  \\      /  F ield         | OpenFOAM: The Open Source CFD Toolbox
   \\    /   O peration     | Website:  https://openfoam.org
    \\  /    A nd           | Version:  7
     \\/     M anipulation  |
\*---------------------------------------------------------------------------*/
FoamFile
{
    version     2.0;
    format      ascii;
    class       volScalarField;
    location    "25";
    object      T;
}
// * * * * * * * * * * * * * * * * * * * * * * * * * * * * * * * * * * * * * //

dimensions      [0 0 0 1 0 0 0];

internalField   nonuniform List<scalar> 
900
(
503.468
503.455
503.428
503.385
503.323
503.236
503.119
502.959
502.744
502.452
502.051
501.495
500.706
499.556
497.814
495.015
490.105
480.257
456.586
387.45
469.423
469.386
469.308
469.185
469.006
468.758
468.421
467.967
467.355
466.528
465.4
463.845
461.664
458.538
453.926
446.862
435.524
416.321
382.179
320.967
439.807
439.748
439.626
439.431
439.15
438.762
438.235
437.529
436.583
435.314
433.599
431.264
428.045
423.542
417.13
407.815
394.02
373.317
342.452
298.887
414.1
414.023
413.864
413.611
413.247
412.745
412.069
411.167
409.968
408.374
406.249
403.399
399.551
394.317
387.139
377.233
363.544
344.811
319.966
289.312
391.857
391.766
391.579
391.283
390.857
390.273
389.491
388.455
387.091
385.298
382.939
379.832
375.73
370.305
363.128
353.667
341.321
325.558
306.24
284.198
372.681
372.581
372.376
372.051
371.586
370.952
370.108
368.999
367.553
365.675
363.242
360.094
356.028
350.793
344.092
335.597
325.012
312.181
297.282
281.064
356.217
356.113
355.897
355.558
355.076
354.421
353.556
352.428
350.973
349.106
346.723
343.693
339.862
335.05
329.064
321.723
312.905
302.624
291.127
278.975
342.144
342.038
341.822
341.482
341
340.35
339.497
338.395
336.988
335.205
332.961
330.156
326.676
322.401
317.214
311.025
303.806
295.632
286.732
277.507
330.17
330.067
329.856
329.526
329.06
328.436
327.621
326.579
325.261
323.611
321.562
319.041
315.967
312.263
307.865
302.735
296.889
290.418
283.507
276.438
320.034
319.936
319.736
319.424
318.986
318.402
317.645
316.685
315.483
313.995
312.17
309.956
307.299
304.151
300.481
296.281
291.582
286.472
281.092
275.643
311.497
311.407
311.221
310.934
310.531
309.997
309.311
308.446
307.374
306.06
304.467
302.559
300.302
297.668
294.643
291.235
287.48
283.452
279.258
275.041
304.346
304.264
304.096
303.836
303.474
302.995
302.385
301.622
300.683
299.543
298.177
296.56
294.669
292.49
290.022
287.278
284.291
281.122
277.852
274.581
298.389
298.316
298.166
297.935
297.615
297.195
296.661
295.998
295.19
294.217
293.063
291.709
290.144
288.362
286.365
284.168
281.803
279.315
276.765
274.226
293.454
293.39
293.259
293.057
292.779
292.415
291.956
291.389
290.703
289.884
288.921
287.802
286.52
285.074
283.47
281.723
279.856
277.907
275.921
273.95
289.389
289.333
289.221
289.047
288.809
288.498
288.109
287.631
287.056
286.376
285.58
284.665
283.625
282.461
281.182
279.798
278.331
276.809
275.264
273.736
286.06
286.012
285.917
285.77
285.568
285.307
284.981
284.583
284.107
283.547
282.898
282.155
281.318
280.389
279.374
278.285
277.136
275.951
274.752
273.57
283.349
283.31
283.229
283.106
282.938
282.721
282.451
282.123
281.733
281.277
280.752
280.155
279.487
278.75
277.95
277.096
276.201
275.28
274.353
273.44
281.156
281.123
281.056
280.954
280.816
280.637
280.416
280.149
279.833
279.465
279.044
278.568
278.038
277.457
276.83
276.164
275.469
274.757
274.042
273.338
279.391
279.364
279.309
279.226
279.113
278.967
278.788
278.573
278.319
278.025
277.69
277.313
276.896
276.441
275.953
275.436
274.898
274.35
273.8
273.26
277.979
277.957
277.913
277.846
277.754
277.637
277.493
277.321
277.119
276.886
276.621
276.326
276
275.646
275.267
274.868
274.454
274.033
273.612
273.199
276.857
276.84
276.804
276.75
276.677
276.584
276.469
276.333
276.173
275.99
275.783
275.552
275.299
275.025
274.733
274.426
274.109
273.787
273.466
273.151
275.971
275.957
275.929
275.886
275.828
275.754
275.664
275.557
275.432
275.288
275.127
274.949
274.753
274.542
274.319
274.084
273.843
273.598
273.354
273.115
275.275
275.264
275.242
275.208
275.162
275.105
275.034
274.95
274.853
274.742
274.618
274.481
274.331
274.169
273.999
273.82
273.637
273.452
273.267
273.087
274.732
274.723
274.706
274.68
274.644
274.599
274.544
274.48
274.405
274.32
274.224
274.119
274.005
273.882
273.753
273.618
273.48
273.34
273.201
273.065
274.311
274.304
274.29
274.27
274.243
274.208
274.166
274.116
274.059
273.994
273.921
273.841
273.755
273.662
273.565
273.463
273.359
273.255
273.15
273.049
273.986
273.981
273.97
273.955
273.934
273.907
273.875
273.837
273.794
273.744
273.689
273.629
273.564
273.494
273.421
273.345
273.268
273.19
273.112
273.036
273.737
273.733
273.725
273.714
273.698
273.678
273.653
273.625
273.592
273.554
273.513
273.468
273.419
273.367
273.313
273.256
273.199
273.141
273.083
273.027
273.548
273.545
273.539
273.53
273.518
273.503
273.485
273.463
273.438
273.411
273.38
273.346
273.31
273.271
273.231
273.189
273.146
273.104
273.061
273.02
273.405
273.403
273.398
273.391
273.382
273.371
273.357
273.341
273.323
273.302
273.279
273.255
273.228
273.199
273.17
273.139
273.107
273.076
273.045
273.015
273.297
273.296
273.292
273.287
273.281
273.272
273.262
273.25
273.237
273.221
273.205
273.186
273.166
273.146
273.124
273.101
273.078
273.055
273.033
273.011
273.217
273.216
273.213
273.21
273.205
273.198
273.191
273.182
273.172
273.161
273.149
273.135
273.121
273.106
273.09
273.074
273.057
273.04
273.024
273.008
273.157
273.157
273.155
273.152
273.148
273.144
273.138
273.132
273.125
273.117
273.108
273.098
273.087
273.076
273.065
273.053
273.041
273.029
273.017
273.006
273.113
273.113
273.112
273.11
273.107
273.104
273.1
273.095
273.09
273.084
273.077
273.07
273.063
273.055
273.047
273.038
273.029
273.021
273.012
273.004
273.081
273.081
273.08
273.078
273.077
273.074
273.071
273.068
273.064
273.06
273.055
273.05
273.045
273.039
273.033
273.027
273.021
273.015
273.009
273.003
273.058
273.058
273.057
273.056
273.054
273.053
273.051
273.048
273.046
273.043
273.039
273.036
273.032
273.028
273.024
273.019
273.015
273.011
273.006
273.002
273.041
273.041
273.04
273.04
273.039
273.037
273.036
273.034
273.032
273.03
273.028
273.025
273.022
273.02
273.017
273.014
273.011
273.007
273.004
273.001
273.029
273.029
273.028
273.028
273.027
273.026
273.025
273.024
273.023
273.021
273.019
273.018
273.016
273.014
273.012
273.01
273.007
273.005
273.003
273.001
273.02
273.02
273.02
273.019
273.019
273.018
273.018
273.017
273.016
273.015
273.014
273.012
273.011
273.01
273.008
273.007
273.005
273.004
273.002
273.001
273.014
273.014
273.014
273.014
273.013
273.013
273.012
273.012
273.011
273.01
273.009
273.009
273.008
273.007
273.006
273.005
273.004
273.003
273.001
273
273.01
273.01
273.01
273.009
273.009
273.009
273.009
273.008
273.008
273.007
273.007
273.006
273.005
273.005
273.004
273.003
273.002
273.002
273.001
273
273.007
273.007
273.007
273.007
273.006
273.006
273.006
273.006
273.005
273.005
273.005
273.004
273.004
273.003
273.003
273.002
273.002
273.001
273.001
273
273.005
273.005
273.005
273.005
273.004
273.004
273.004
273.004
273.004
273.003
273.003
273.003
273.003
273.002
273.002
273.002
273.001
273.001
273
273
273.003
273.003
273.003
273.003
273.003
273.003
273.003
273.003
273.003
273.003
273.002
273.002
273.002
273.002
273.001
273.001
273.001
273.001
273
273
273.003
273.003
273.003
273.003
273.002
273.002
273.002
273.002
273.002
273.002
273.002
273.002
273.001
273.001
273.001
273.001
273.001
273
273
273
273.002
273.002
273.002
273.002
273.002
273.002
273.002
273.002
273.002
273.002
273.002
273.001
273.001
273.001
273.001
273.001
273.001
273
273
273
)
;

boundaryField
{
    topWall
    {
        type            zeroGradient;
    }
    bottomWall
    {
        type            codedFixedValue;
        value           uniform 523;
        name            heating;
        code            #{
            const scalar t = this->db().time().value();
            const scalar Ttemp = 273 + 10*t;
            operator==(Ttemp);
        #};
    }
    sideWallL
    {
        type            symmetry;
    }
    sideWallR
    {
        type            fixedValue;
        value           uniform 273;
    }
    frontAndBack
    {
        type            empty;
    }
}


// ************************************************************************* //
