/*--------------------------------*- C++ -*----------------------------------*\
  =========                 |
  \\      /  F ield         | OpenFOAM: The Open Source CFD Toolbox
   \\    /   O peration     | Website:  https://openfoam.org
    \\  /    A nd           | Version:  7
     \\/     M anipulation  |
\*---------------------------------------------------------------------------*/
FoamFile
{
    version     2.0;
    format      ascii;
    class       volScalarField;
    location    "35";
    object      gradTx;
}
// * * * * * * * * * * * * * * * * * * * * * * * * * * * * * * * * * * * * * //

dimensions      [0 -1 0 1 0 0 0];

internalField   nonuniform List<scalar> 
900
(
-70.716
-216.111
-373.723
-552.833
-764.593
-1023.16
-1347.29
-1762.81
-2306.55
-3032.92
-4025.88
-5422.31
-7463.1
-10619.6
-15950.7
-26232.3
-49843.3
-115403
-326292
-1.02722e+06
-193.255
-590.615
-1021.43
-1511.14
-2090.37
-2798.04
-3685.88
-4825.21
-6317.75
-8313.57
-11042.3
-14870.7
-20414.1
-28770.3
-42035.3
-64504
-105434
-184266
-331215
-540768
-299.429
-914.79
-1580.99
-2336.52
-3227.43
-4311.76
-5665.89
-7393.78
-9641.37
-12619.3
-16640.7
-22184.1
-30003.5
-41319
-58140.2
-83755.4
-123191
-182359
-261130
-330943
-392.656
-1198.85
-2069.25
-3052.05
-4204.17
-5596.25
-7319.33
-9494.4
-12286.2
-15923.7
-20730.7
-27171.2
-35914.9
-47921.8
-64525.4
-87411.6
-118186
-156773
-197436
-222846
-466.136
-1422.01
-2450.28
-3604.65
-4947.56
-6554.82
-8521.64
-10970.6
-14062.2
-18009.3
-23095.2
-29695.1
-38297.3
-49506.7
-63994.9
-82307.4
-104365
-128446
-149686
-159371
-518.053
-1578.85
-2715.18
-3982.32
-5443.32
-7172.86
-9261.84
-11823
-14997.6
-18962.3
-23936.5
-30184.8
-38009.3
-47714.7
-59520
-73372
-88612.5
-103508
-114869
-118455
-548.841
-1670.9
-2867.28
-4191.6
-5703.7
-7472.52
-9579.09
-12119.7
-15208.9
-18980.9
-23588.8
-29196.4
-35957.8
-43974.8
-53216.9
-63393.1
-73776.7
-83038.3
-89246.2
-90310.4
-560.262
-1703.75
-2917.05
-4249.7
-5755.82
-7495.81
-9538.01
-11959.9
-14848.1
-18296.8
-22401.9
-27249.6
-32893.9
-39319.8
-46386.8
-53755.2
-60809.7
-66626
-70061.1
-70053.8
-554.948
-1685.66
-2879.42
-4180.27
-5635.15
-7294.8
-9214.24
-11452.6
-14071.4
-17131.3
-20685.1
-24765.5
-29367
-34418.8
-39749.8
-45052.4
-49857.3
-53547.8
-55447.1
-54998.3
-536.005
-1626.26
-2771.59
-4009.84
-5380.35
-6924.2
-8683.94
-10702.5
-13021
-15674.5
-18685.7
-22054.8
-25745.6
-29668.2
-33660.1
-37470.5
-40759
-43120.5
-44150.1
-43545.9
-506.678
-1535.56
-2611.17
-3765.07
-5029.26
-6435.94
-8016.8
-9801.6
-11815.7
-14076.4
-16587.1
-19330.2
-22257.4
-25279.8
-28258.3
-30999.4
-33262.4
-34781.9
-35312.2
-34684.8
-470.08
-1423.11
-2414.76
-3470.67
-4616.17
-5875.77
-7272.26
-8825.19
-10548.6
-12448.1
-14515.9
-16726.6
-19030.5
-21348.5
-23568.1
-25544.8
-27110.1
-28089.9
-28332.4
-27741.7
-429.012
-1297.46
-2197.06
-3148.17
-4170.33
-5281.7
-6498.05
-7831.44
-9288.24
-10866.7
-12553.9
-14322.3
-16126.1
-17899.1
-19553.5
-20983.2
-22070.8
-22701.3
-22779.6
-22250.1
-385.855
-1165.82
-1970.37
-2815.28
-3715.31
-4683.52
-5730.4
-6862.68
-8081.81
-9382.13
-10748.8
-12155.4
-13562.7
-14917.1
-16151.6
-17188.8
-17947.2
-18350.1
-18337.3
-17876.1
-342.53
-1033.99
-1744.44
-2485.87
-3269.13
-4103.36
-4995.18
-5947.73
-6959.52
-8023.11
-9123.75
-10238.1
-11333.5
-12367.6
-13290
-14044.7
-14574.9
-14829.1
-14768.7
-14374.4
-300.498
-906.354
-1526.59
-2170.09
-2844.69
-3556.53
-4309.51
-5104.46
-5938.31
-6803.19
-7685.56
-8565.57
-9416.75
-10206.4
-10896.7
-11447.4
-11818.6
-11975.7
-11893.5
-11560.7
-260.809
-786.043
-1321.93
-1874.95
-2450.55
-3052.73
-3683.51
-4342.32
-5025.4
-5725.22
-6429.96
-7123.19
-7783.91
-8387.04
-8904.54
-9307.24
-9567.31
-9661.12
-9572.3
-9294.16
-224.148
-675.077
-1133.74
-1604.71
-2091.71
-2597.18
-3121.89
-3664.51
-4221.15
-4785.01
-5346.1
-5891.1
-6403.56
-6864.42
-7252.93
-7548.05
-7730.17
-7783.17
-7696.27
-7465.63
-190.903
-574.583
-963.739
-1361.54
-1770.4
-2191.68
-2625.4
-3069.83
-3521.31
-3973.92
-4419.4
-4847.13
-5244.35
-5596.65
-5888.72
-6105.35
-6232.73
-6259.76
-6179.33
-5989.34
-161.229
-484.986
-812.52
-1145.94
-1486.75
-1835.59
-2191.99
-2554.17
-2918.79
-3280.86
-3633.66
-3968.83
-4276.54
-4545.95
-4765.76
-4925.01
-5013.89
-5024.77
-4952.94
-4797.31
-135.104
-406.186
-679.79
-957.263
-1239.46
-1526.56
-1817.84
-2111.58
-2404.88
-2693.6
-2972.35
-3234.59
-3472.82
-3678.89
-3844.48
-3961.66
-4023.49
-4024.67
-3962.09
-3835.27
-112.383
-337.713
-564.656
-794.022
-1026.23
-1261.16
-1498
-1735.18
-1970.22
-2199.75
-2419.49
-2624.37
-2808.67
-2966.29
-3091.13
-3177.42
-3220.25
-3215.93
-3162.42
-3059.56
-92.8358
-278.852
-465.839
-654.236
-844.175
-1035.37
-1227.01
-1417.69
-1605.37
-1787.3
-1960.14
-2119.95
-2262.41
-2382.97
-2477.12
-2540.71
-2570.21
-2563.09
-2517.99
-2434.95
-76.1844
-228.746
-381.836
-535.647
-690.132
-844.924
-999.262
-1151.94
-1301.25
-1445.04
-1580.67
-1705.13
-1815.14
-1907.32
-1978.35
-2025.21
-2045.41
-2037.17
-1999.61
-1932.86
-62.1273
-186.473
-311.052
-435.899
-560.865
-685.556
-809.286
-931.032
-1049.42
-1162.73
-1268.91
-1365.66
-1450.52
-1520.96
-1574.54
-1609.09
-1622.81
-1614.47
-1583.5
-1530.08
-50.359
-151.102
-251.891
-352.663
-453.217
-553.172
-651.922
-748.62
-842.157
-931.179
-1014.1
-1089.18
-1154.55
-1208.34
-1248.75
-1274.21
-1283.44
-1275.58
-1250.27
-1207.7
-40.5831
-121.734
-202.817
-283.717
-364.216
-443.959
-522.428
-598.928
-672.573
-742.305
-806.906
-865.044
-915.324
-956.355
-986.824
-1005.58
-1011.72
-1004.64
-984.115
-950.322
-32.5214
-97.5262
-162.401
-227.007
-291.128
-354.449
-416.534
-476.816
-534.597
-589.05
-639.243
-684.166
-722.776
-754.039
-776.995
-790.808
-794.831
-788.649
-772.123
-745.414
-25.919
-77.7082
-129.339
-180.668
-231.494
-281.544
-330.455
-377.772
-422.945
-465.333
-504.225
-538.857
-568.45
-592.238
-609.517
-619.683
-622.272
-616.998
-603.78
-582.755
-20.5473
-61.59
-102.468
-143.044
-183.138
-222.518
-260.887
-297.882
-333.071
-365.961
-396.01
-422.644
-445.279
-463.351
-476.343
-483.818
-485.445
-481.028
-470.52
-454.039
-16.2044
-48.5629
-80.7638
-112.681
-144.16
-175.005
-204.977
-233.788
-261.1
-286.537
-309.686
-330.115
-347.39
-361.095
-370.851
-376.342
-377.333
-373.688
-365.383
-352.517
-12.7147
-38.0979
-63.3377
-88.3234
-112.923
-136.976
-160.29
-182.638
-203.76
-223.367
-241.145
-256.773
-269.927
-280.299
-287.615
-291.644
-292.219
-289.249
-282.722
-272.719
-9.92725
-29.7409
-49.4285
-68.8953
-88.031
-106.705
-124.765
-142.032
-158.307
-173.368
-186.98
-198.901
-208.892
-216.726
-222.202
-225.155
-225.466
-223.071
-217.969
-210.224
-7.71371
-23.106
-38.3905
-53.4875
-68.3066
-82.7427
-96.6748
-109.965
-122.459
-133.989
-144.378
-153.445
-161.014
-166.918
-171.01
-173.171
-173.317
-171.405
-167.437
-161.464
-5.96621
-17.8691
-29.6816
-41.3381
-52.7649
-63.8784
-74.5836
-84.7738
-94.3309
-103.128
-111.033
-117.91
-123.63
-128.069
-131.121
-132.701
-132.748
-131.233
-128.162
-123.574
-4.59488
-13.7602
-22.8511
-31.8139
-40.5896
-49.1121
-57.3072
-65.0928
-72.379
-79.07
-85.0666
-90.2688
-94.5799
-97.9107
-100.183
-101.336
-101.327
-100.137
-97.77
-94.2589
-3.52554
-10.5567
-17.5273
-24.3941
-31.1102
-37.6236
-43.8768
-49.8067
-55.3453
-60.4203
-64.9577
-68.8833
-72.126
-74.6204
-76.31
-77.1506
-77.1123
-76.1822
-74.3657
-71.6873
-2.69755
-8.07657
-13.4068
-18.6538
-23.7804
-28.7459
-33.5061
-38.0127
-42.214
-46.0559
-49.483
-52.4406
-54.8762
-56.742
-57.9972
-58.6097
-58.5587
-57.8355
-56.4453
-54.4069
-2.06184
-6.17264
-10.2444
-14.2498
-18.1596
-21.9421
-25.5632
-28.986
-32.1714
-35.0787
-37.6668
-39.8949
-41.7244
-43.1205
-44.0534
-44.5001
-44.4459
-43.8852
-42.8224
-41.2721
-1.57916
-4.72719
-7.84409
-10.9082
-13.8964
-16.7843
-19.5452
-22.1511
-24.5723
-26.7782
-28.7379
-30.4212
-31.7996
-32.8475
-33.5432
-33.8701
-33.8178
-33.3827
-32.5686
-31.3868
-1.21855
-3.64742
-6.05135
-8.41309
-10.7144
-12.9361
-15.0576
-17.0571
-18.912
-20.599
-22.0949
-23.377
-24.4241
-25.2173
-25.7405
-25.9818
-25.9337
-25.5939
-24.9656
-24.0578
-0.956116
-2.86165
-4.74696
-6.5981
-8.40048
-10.1387
-11.7966
-13.3572
-14.8027
-16.1153
-17.2771
-18.2707
-19.0802
-19.6912
-20.0918
-20.2731
-20.2297
-19.9602
-19.4672
-18.7578
-0.773923
-2.31618
-3.84158
-5.33854
-6.79503
-8.19844
-9.53557
-10.7927
-11.9555
-13.0099
-13.9416
-14.737
-15.3834
-15.8697
-16.1868
-16.3277
-16.2885
-16.0682
-15.6692
-15.0972
-0.659233
-1.97283
-3.27173
-4.54588
-5.78486
-6.97784
-8.11352
-9.18018
-10.1659
-11.0585
-11.8462
-12.5176
-13.0623
-13.471
-13.7361
-13.8522
-13.8161
-13.627
-13.2871
-12.8014
-0.60388
-1.80712
-2.99672
-4.16338
-5.29746
-6.38899
-7.42758
-8.40251
-9.30287
-10.1177
-10.8361
-11.448
-11.9438
-12.3153
-12.5556
-12.6599
-12.6253
-12.4514
-12.1401
-11.6959
)
;

boundaryField
{
    topWall
    {
        type            calculated;
        value           nonuniform List<scalar> 
20
(
-0.60388
-1.80712
-2.99672
-4.16338
-5.29746
-6.38899
-7.42758
-8.40251
-9.30287
-10.1177
-10.8361
-11.448
-11.9438
-12.3153
-12.5556
-12.6599
-12.6253
-12.4514
-12.1401
-11.6959
)
;
    }
    bottomWall
    {
        type            calculated;
        value           nonuniform List<scalar> 
20
(
-70.716
-216.111
-373.723
-552.833
-764.593
-1023.16
-1347.29
-1762.81
-2306.55
-3032.92
-4025.88
-5422.31
-7463.1
-10619.6
-15950.7
-26232.3
-49843.3
-115403
-326292
-1.02722e+06
)
;
    }
    sideWallL
    {
        type            symmetry;
    }
    sideWallR
    {
        type            calculated;
        value           nonuniform List<scalar> 
45
(
-1.56609e+06
-655536
-357233
-228650
-160003
-117741
-89308.7
-69075.3
-54131.7
-42807.7
-34067.5
-27230.7
-21829.5
-17531.4
-14092.7
-11331.1
-9107.61
-7314.38
-5867.02
-4698.65
-3755.91
-2995.91
-2384.05
-1892.28
-1497.82
-1182.15
-930.157
-729.552
-570.323
-444.33
-344.963
-266.864
-205.702
-157.986
-120.908
-92.2228
-70.1369
-53.2289
-40.3776
-30.7059
-23.5354
-18.3502
-14.7688
-12.5228
-11.4413
)
;
    }
    frontAndBack
    {
        type            empty;
    }
}


// ************************************************************************* //
