/*--------------------------------*- C++ -*----------------------------------*\
  =========                 |
  \\      /  F ield         | OpenFOAM: The Open Source CFD Toolbox
   \\    /   O peration     | Website:  https://openfoam.org
    \\  /    A nd           | Version:  7
     \\/     M anipulation  |
\*---------------------------------------------------------------------------*/
FoamFile
{
    version     2.0;
    format      ascii;
    class       volScalarField;
    location    "35";
    object      gradTy;
}
// * * * * * * * * * * * * * * * * * * * * * * * * * * * * * * * * * * * * * //

dimensions      [0 -1 0 1 0 0 0];

internalField   nonuniform List<scalar> 
900
(
-262706
-262970
-263513
-264365
-265577
-267220
-269398
-272253
-275986
-280877
-287332
-295946
-307625
-323823
-347015
-381809
-437751
-537086
-737421
-1.19459e+06
-201132
-201361
-201831
-202568
-203615
-205031
-206903
-209350
-212534
-216684
-222121
-229299
-238882
-251840
-269582
-294029
-327105
-367377
-394061
-302214
-167107
-167307
-167715
-168354
-169256
-170468
-172054
-174102
-176724
-180070
-184334
-189758
-196634
-205259
-215786
-227749
-238694
-240501
-211201
-106722
-148941
-149108
-149448
-149977
-150717
-151697
-152960
-154553
-156536
-158974
-161926
-165428
-169437
-173722
-177625
-179577
-176177
-160751
-122264
-49307.6
-132909
-133034
-133289
-133680
-134219
-134919
-135795
-136862
-138124
-139573
-141163
-142779
-144176
-144873
-143969
-139868
-129929
-110294
-76663.9
-27727.2
-117865
-117948
-118114
-118365
-118701
-119121
-119619
-120179
-120768
-121325
-121740
-121819
-121241
-119480
-115709
-108702
-96794.7
-78113.3
-51387
-17673.5
-103877
-103919
-104001
-104121
-104269
-104433
-104592
-104709
-104729
-104560
-104063
-103025
-101128
-97909.9
-92733
-84776.7
-73116.2
-56973.9
-36234.3
-12166.5
-91027
-91033.1
-91041.7
-91045.2
-91030.4
-90976.7
-90852.7
-90611.8
-90185.5
-89474.3
-88335.9
-86570.6
-83905
-79979.8
-74349
-66512.7
-56008.4
-42593.3
-26517.8
-8794.24
-79346.1
-79321.9
-79268.6
-79176.4
-79028.8
-78800.9
-78457.2
-77946.9
-77199.8
-76119.7
-74577.5
-72403.6
-69382.8
-65255.3
-59731.3
-52528.6
-43446.5
-32477.9
-19941
-6566.9
-68820.7
-68772.4
-68670.6
-68504.2
-68255.4
-67898.3
-67396.5
-66700.8
-65745.6
-64445.2
-62690.6
-60347.2
-57255.3
-53237.5
-48116.3
-41746
-34063.3
-25151
-15297.4
-5016.05
-59408.7
-59342.8
-59205.5
-58985.9
-58666.4
-58221.8
-57617.9
-56810.1
-55740.6
-54337.8
-52514.2
-50167.9
-47186
-43452.9
-38866.2
-33360.8
-26940.5
-19712
-11909.9
-3894.27
-51049.8
-50972.1
-50811.6
-50558
-50194.7
-49699
-49040.5
-48180.3
-47070.3
-45652.8
-43860.7
-41619.7
-38852.8
-35488.3
-31472
-26783.6
-21455.8
-15592.1
-9375.2
-3059.51
-43672.4
-43588.2
-43415.1
-43143.8
-42759.7
-42242.9
-41567.5
-40701.1
-39605
-38234.2
-36539
-34467.1
-31967.8
-28999.3
-25536.5
-21582.8
-17180.6
-12419.9
-7440.81
-2424.82
-37199.3
-37112.8
-36935.8
-36660.2
-36273.5
-35759
-35095.1
-34256.1
-33211.4
-31927.4
-30367.8
-28497.2
-26283.7
-23704.6
-20752.2
-17441
-13813.7
-9945.09
-5941.55
-1934.2
-31550.7
-31465.4
-31291.3
-31021.6
-30646.1
-30151
-29519.1
-28730.1
-27760.9
-26586.6
-25181.9
-23523.4
-21592.1
-19377.4
-16881.3
-14122.5
-11139.9
-7993.92
-4765.39
-1550.06
-26647.7
-26566
-26399.7
-26143.5
-25788.8
-25324.9
-24738.2
-24013.2
-23132.8
-22079.1
-20834.9
-19385.3
-17720
-15835.8
-13739.4
-11450.3
-9001.95
-6442.7
-3833.94
-1246.27
-22413.2
-22336.9
-22181.9
-21944
-21616.6
-21191
-20657.2
-20003.4
-19217.3
-18286.3
-17199.1
-15946.8
-14524.6
-12933.6
-11182.7
-9289.82
-7283.32
-5201.4
-3090.84
-1004.19
-18774.1
-18704.2
-18562.6
-18346
-18049.2
-17665.8
-17188.2
-16607.7
-15915.7
-15103.6
-14164.4
-13093.1
-11888.3
-10553.5
-9097.93
-7537.69
-5896.04
-4203.11
-2494.68
-810.147
-15661.5
-15598.6
-15471.4
-15277.4
-15012.7
-14672.4
-14251.1
-13742.5
-13140.7
-12440.2
-11636.6
-10727.7
-9714.31
-8600.71
-7395.83
-6113.54
-4772.79
-3397.26
-2014.39
-653.933
-13011.7
-12956
-12843.4
-12672
-12439.1
-12141.1
-11774
-11333.5
-10815.7
-10217.1
-9535.38
-8770.04
-7922.85
-6998.51
-6005.08
-4954.27
-3861.39
-2745.02
-1626.29
-527.778
-10766.3
-10717.5
-10619.1
-10469.6
-10267.1
-10009.1
-9692.7
-9315.1
-8873.71
-8366.53
-7792.6
-7152.36
-6448.14
-5684.49
-4868.49
-4009.86
-3120.9
-2216.21
-1312.06
-425.686
-8872.18
-8829.91
-8744.84
-8615.96
-8441.81
-8220.67
-7950.63
-7629.84
-7256.74
-6830.32
-6350.44
-5818.11
-5235.8
-4607.7
-3939.88
-3240.34
-2518.93
-1787.07
-1057.35
-342.965
-7281.5
-7245.3
-7172.53
-7062.48
-6914.16
-6726.38
-6497.93
-6227.64
-5914.69
-5558.68
-5159.98
-4719.86
-4240.74
-3726.34
-3181.76
-2613.55
-2029.55
-1438.72
-850.793
-275.907
-5951.62
-5920.91
-5859.24
-5766.13
-5640.91
-5482.82
-5291.1
-5065.09
-4804.43
-4509.15
-4179.86
-3817.92
-3425.57
-3006.03
-2563.56
-2103.45
-1631.94
-1156.05
-683.319
-221.555
-4844.71
-4818.88
-4767.06
-4688.94
-4584.08
-4452.02
-4292.33
-4104.68
-3889.01
-3645.59
-3375.15
-3079.02
-2759.2
-2418.43
-2060.22
-1688.84
-1309.22
-926.867
-547.635
-177.532
-3927.44
-3905.89
-3862.7
-3797.66
-3710.52
-3601.01
-3468.92
-3314.15
-3136.81
-2937.3
-2716.39
-2475.3
-2215.77
-1940.11
-1651.17
-1352.39
-1047.66
-741.299
-437.837
-141.917
-3170.67
-3152.83
-3117.09
-3063.34
-2991.44
-2901.25
-2792.71
-2665.86
-2520.91
-2358.3
-2178.78
-1983.44
-1773.77
-1551.67
-1319.47
-1079.91
-836.066
-591.298
-349.132
-113.15
-2549.07
-2534.41
-2505.04
-2460.93
-2402
-2328.21
-2239.58
-2136.23
-2018.42
-1886.6
-1741.45
-1583.92
-1415.27
-1237.05
-1051.15
-859.741
-665.249
-470.293
-277.608
-89.9587
-2040.75
-2028.77
-2004.81
-1968.84
-1920.85
-1860.85
-1788.92
-1705.2
-1609.98
-1503.68
-1386.89
-1260.44
-1125.37
-982.946
-834.681
-682.294
-527.69
-372.908
-220.069
-71.3054
-1626.89
-1617.17
-1597.74
-1568.6
-1529.75
-1481.26
-1423.22
-1355.78
-1279.23
-1193.94
-1100.44
-999.401
-891.693
-778.342
-660.55
-539.676
-417.209
-294.737
-173.899
-56.34
-1291.42
-1283.59
-1267.93
-1244.46
-1213.21
-1174.24
-1127.67
-1073.65
-1012.42
-944.336
-869.829
-789.471
-703.958
-614.119
-520.907
-425.39
-328.733
-232.165
-136.953
-44.3665
-1020.7
-1014.42
-1001.88
-983.085
-958.089
-926.956
-889.789
-846.743
-798.034
-743.95
-684.865
-621.244
-553.651
-482.746
-409.282
-334.097
-258.095
-182.23
-107.478
-34.8151
-803.173
-798.172
-788.181
-773.225
-753.345
-728.608
-699.112
-664.993
-626.438
-583.691
-537.06
-486.924
-433.733
-378.011
-320.352
-261.407
-201.88
-142.505
-84.0356
-27.2195
-629.144
-625.183
-617.272
-605.436
-589.715
-570.17
-546.888
-519.989
-489.63
-456.013
-419.39
-380.066
-338.399
-294.804
-249.742
-203.723
-157.288
-111.005
-65.4509
-21.1984
-490.493
-487.374
-481.147
-471.835
-459.473
-444.118
-425.843
-404.75
-380.971
-354.67
-326.052
-295.359
-262.875
-228.925
-193.868
-158.098
-122.033
-86.1076
-50.7644
-16.4408
-380.458
-378.017
-373.145
-365.863
-356.201
-344.208
-329.946
-313.501
-294.979
-274.515
-252.271
-228.44
-203.244
-176.936
-149.796
-122.125
-94.2454
-66.4894
-39.1941
-12.6929
-293.432
-291.535
-287.748
-282.09
-274.588
-265.281
-254.222
-241.48
-227.142
-211.315
-194.128
-175.732
-156.3
-136.028
-115.131
-93.8416
-72.4046
-51.0732
-30.1036
-9.74847
-224.783
-223.319
-220.399
-216.037
-210.255
-203.086
-194.573
-184.772
-173.753
-161.599
-148.411
-134.308
-119.423
-103.906
-87.9228
-71.6495
-55.2723
-38.9831
-22.9753
-7.43982
-170.692
-169.573
-167.342
-164.011
-159.597
-154.127
-147.635
-140.166
-131.773
-122.524
-112.496
-101.779
-90.4763
-78.7023
-66.5818
-54.2483
-41.8421
-29.5074
-17.3893
-5.63075
-128.011
-127.168
-125.486
-122.975
-119.649
-115.53
-110.643
-105.024
-98.7143
-91.7646
-84.2346
-76.1928
-67.7167
-58.8925
-49.8135
-40.5796
-31.2951
-22.0673
-13.0038
-4.21055
-94.1444
-93.5213
-92.2788
-90.4242
-87.9688
-84.9282
-81.3232
-77.1797
-72.5293
-67.41
-61.8664
-55.9492
-49.7159
-43.2298
-36.5596
-29.7784
-22.9626
-16.1903
-9.54004
-3.08892
-66.9332
-66.4886
-65.602
-64.2788
-62.5275
-60.3594
-57.7898
-54.8374
-51.5254
-47.881
-43.9363
-39.7277
-35.2962
-30.687
-25.9487
-21.1333
-16.2946
-11.4881
-6.76895
-2.19164
-44.5627
-44.2658
-43.6739
-42.7906
-41.6216
-40.175
-38.4608
-36.4919
-34.2838
-31.855
-29.227
-26.4241
-23.4739
-20.4062
-17.2536
-14.0505
-10.8328
-7.63693
-4.49963
-1.45685
-25.4735
-25.3035
-24.9645
-24.4586
-23.7893
-22.9611
-21.9799
-20.8531
-19.5897
-18.2004
-16.6975
-15.0949
-13.4085
-11.6553
-9.85402
-8.02418
-6.18623
-4.36102
-2.56942
-0.831895
-8.28394
-8.22858
-8.11823
-7.95358
-7.73573
-7.46618
-7.14687
-6.78024
-6.3692
-5.91724
-5.42838
-4.90719
-4.35877
-3.78872
-3.20306
-2.60819
-2.01073
-1.41745
-0.835119
-0.270383
)
;

boundaryField
{
    topWall
    {
        type            calculated;
        value           uniform 0;
    }
    bottomWall
    {
        type            calculated;
        value           nonuniform List<scalar> 
20
(
-300159
-300441
-301023
-301936
-303234
-304995
-307327
-310384
-314378
-319610
-326510
-335714
-348199
-365566
-390677
-429369
-495607
-628742
-957218
-1.93391e+06
)
;
    }
    sideWallL
    {
        type            symmetry;
    }
    sideWallR
    {
        type            calculated;
        value           nonuniform List<scalar> 
45
(
-1.19459e+06
-302214
-106722
-49307.6
-27727.2
-17673.5
-12166.5
-8794.24
-6566.9
-5016.05
-3894.27
-3059.51
-2424.82
-1934.2
-1550.06
-1246.27
-1004.19
-810.147
-653.933
-527.778
-425.686
-342.965
-275.907
-221.555
-177.532
-141.917
-113.15
-89.9587
-71.3054
-56.34
-44.3665
-34.8151
-27.2195
-21.1984
-16.4408
-12.6929
-9.74847
-7.43982
-5.63075
-4.21055
-3.08892
-2.19164
-1.45685
-0.831895
-0.270383
)
;
    }
    frontAndBack
    {
        type            empty;
    }
}


// ************************************************************************* //
