/*--------------------------------*- C++ -*----------------------------------*\
  =========                 |
  \\      /  F ield         | OpenFOAM: The Open Source CFD Toolbox
   \\    /   O peration     | Website:  https://openfoam.org
    \\  /    A nd           | Version:  7
     \\/     M anipulation  |
\*---------------------------------------------------------------------------*/
FoamFile
{
    version     2.0;
    format      ascii;
    class       volScalarField;
    location    "35";
    object      rhoc;
}
// * * * * * * * * * * * * * * * * * * * * * * * * * * * * * * * * * * * * * //

dimensions      [1 -3 0 0 0 0 0];

internalField   nonuniform List<scalar> 
900
(
0.0001012
0.00010097
0.000100496
9.97537e-05
9.87043e-05
9.72915e-05
9.54389e-05
9.30459e-05
8.9982e-05
8.60804e-05
8.11316e-05
7.48795e-05
6.70252e-05
5.72518e-05
4.5308e-05
3.12588e-05
1.62454e-05
4.17069e-06
1.15546e-07
1.65169e-13
1.2805e-06
1.27085e-06
1.25121e-06
1.22088e-06
1.17886e-06
1.12387e-06
1.05449e-06
9.69327e-07
8.67383e-07
7.4862e-07
6.14831e-07
4.70804e-07
3.25559e-07
1.92873e-07
8.92788e-08
2.71261e-08
3.76801e-09
1.03537e-10
6.25305e-14
1.19267e-21
1.9643e-08
1.93776e-08
1.88425e-08
1.80299e-08
1.69314e-08
1.55422e-08
1.38676e-08
1.19319e-08
9.79005e-09
7.53895e-09
5.32423e-09
3.33205e-09
1.7531e-09
7.13103e-10
1.95109e-10
2.81619e-11
1.37196e-12
9.52047e-15
1.6925e-18
3.69579e-25
2.96315e-10
2.9038e-10
2.78541e-10
2.60899e-10
2.37703e-10
2.09463e-10
1.77095e-10
1.42063e-10
1.06457e-10
7.29137e-11
4.42479e-11
2.27448e-11
9.26467e-12
2.70253e-12
4.82148e-13
4.08861e-14
1.09389e-15
4.75605e-18
1.24179e-21
8.72552e-27
4.49864e-12
4.37887e-12
4.14267e-12
3.79748e-12
3.35637e-12
2.83981e-12
2.27719e-12
1.70688e-12
1.17351e-12
7.21008e-13
3.81833e-13
1.65678e-13
5.48037e-14
1.24575e-14
1.67349e-15
1.06669e-16
2.35682e-18
1.18555e-20
8.73637e-24
1.19289e-27
7.22165e-14
6.98444e-14
6.52175e-14
5.8582e-14
5.03317e-14
4.10202e-14
3.13514e-14
2.21246e-14
1.41178e-14
7.91996e-15
3.76081e-15
1.43601e-15
4.11227e-16
8.03406e-17
9.4249e-18
5.61191e-19
1.37685e-20
1.11715e-22
2.70887e-25
3.67581e-28
1.28986e-15
1.24046e-15
1.14507e-15
1.01057e-15
8.4738e-16
6.69099e-16
4.91486e-16
3.3043e-16
1.99017e-16
1.04411e-16
4.59963e-17
1.62217e-17
4.30604e-18
7.95233e-19
9.26632e-20
6.07375e-21
1.98847e-22
2.99851e-24
2.26406e-26
1.73853e-28
2.69011e-17
2.57539e-17
2.35571e-17
2.05036e-17
1.68725e-17
1.30087e-17
9.28294e-18
6.03379e-18
3.4994e-18
1.76395e-18
7.47615e-19
2.55639e-19
6.70441e-20
1.26981e-20
1.62275e-21
1.30609e-22
6.28252e-24
1.81686e-25
3.76145e-27
1.05429e-28
6.84198e-19
6.52963e-19
5.93531e-19
5.11795e-19
4.16031e-19
3.1603e-19
2.21749e-19
1.41594e-19
8.07484e-20
4.01839e-20
1.69652e-20
5.87629e-21
1.60659e-21
3.32342e-22
4.98706e-23
5.24987e-24
3.84935e-25
2.08081e-26
1.02097e-27
7.45922e-29
2.20205e-20
2.0981e-20
1.90114e-20
1.63207e-20
1.31968e-20
9.96996e-21
6.96377e-21
4.43781e-21
2.53874e-21
1.27869e-21
5.54352e-22
2.01652e-22
5.98901e-23
1.41387e-23
2.59629e-24
3.67907e-25
4.11231e-26
3.94083e-27
3.95787e-28
5.83445e-29
9.23433e-22
8.79755e-22
7.97147e-22
6.84622e-22
5.54409e-22
4.20326e-22
2.95636e-22
1.90752e-22
1.1141e-22
5.80006e-23
2.64586e-23
1.03872e-23
3.44849e-24
9.54519e-25
2.18883e-25
4.19805e-26
7.00303e-27
1.11308e-27
1.9884e-28
4.88338e-29
5.1523e-23
4.91516e-23
4.46653e-23
3.85491e-23
3.14577e-23
2.41267e-23
1.72602e-23
1.14139e-23
6.90439e-24
3.77679e-24
1.84587e-24
7.9679e-25
3.00935e-25
9.89942e-26
2.84945e-26
7.32576e-27
1.76227e-27
4.31078e-28
1.20507e-28
4.28425e-29
3.87374e-24
3.70504e-24
3.38519e-24
2.94739e-24
2.43647e-24
1.90304e-24
1.39608e-24
9.55274e-25
6.05021e-25
3.51859e-25
1.86474e-25
8.95043e-26
3.87901e-26
1.52178e-26
5.46807e-27
1.84651e-27
6.12856e-28
2.13251e-28
8.35898e-29
3.88642e-29
3.94568e-25
3.78756e-25
3.48667e-25
3.07208e-25
2.58334e-25
2.0656e-25
1.5635e-25
1.11475e-25
7.44792e-26
4.64016e-26
2.68511e-26
1.44046e-26
7.17534e-27
3.34257e-27
1.47829e-27
6.36658e-28
2.76884e-28
1.26977e-28
6.38905e-29
3.61191e-29
5.44227e-26
5.24738e-26
4.87469e-26
4.35678e-26
3.73842e-26
3.07159e-26
2.40916e-26
1.79803e-26
1.27301e-26
8.52971e-27
5.403e-27
3.23915e-27
1.84614e-27
1.00944e-27
5.37412e-28
2.84452e-28
1.53542e-28
8.67448e-29
5.2372e-29
3.41703e-29
1.01168e-26
9.80336e-27
9.20056e-27
8.35468e-27
7.33009e-27
6.20308e-27
5.05379e-27
3.95706e-27
2.97362e-27
2.14353e-27
1.48343e-27
9.88407e-28
6.3756e-28
4.0161e-28
2.50053e-28
1.56192e-28
9.94604e-29
6.55283e-29
4.51643e-29
3.27571e-29
2.51217e-27
2.44724e-27
2.32162e-27
2.14351e-27
1.92449e-27
1.6786e-27
1.42106e-27
1.16684e-27
9.29096e-28
7.17824e-28
5.39078e-28
3.94806e-28
2.8341e-28
2.00803e-28
1.41643e-28
1.00437e-28
7.22871e-29
5.32579e-29
4.04202e-29
3.17158e-29
8.20579e-28
8.03568e-28
7.70457e-28
7.23029e-28
6.63834e-28
5.96039e-28
5.23195e-28
4.48958e-28
3.76769e-28
3.09545e-28
2.49443e-28
1.97728e-28
1.54786e-28
1.20259e-28
9.32637e-29
7.26368e-29
5.7148e-29
4.56531e-29
3.71769e-29
3.09395e-29
3.43761e-28
3.38254e-28
3.27475e-28
3.11888e-28
2.92166e-28
2.69163e-28
2.43871e-28
2.17352e-28
1.90668e-28
1.64796e-28
1.40559e-28
1.18568e-28
9.91947e-29
8.25799e-29
6.86654e-29
5.72466e-29
4.80307e-29
4.06887e-29
3.48956e-29
3.03555e-29
1.78182e-28
1.76041e-28
1.71829e-28
1.65687e-28
1.57822e-28
1.48506e-28
1.38058e-28
1.26839e-28
1.15223e-28
1.03582e-28
9.22566e-29
8.15364e-29
7.16432e-29
6.27232e-29
5.48484e-29
4.80252e-29
4.22088e-29
3.7319e-29
3.32561e-29
2.99134e-29
1.09598e-28
1.08628e-28
1.06712e-28
1.03899e-28
1.00262e-28
9.58975e-29
9.0925e-29
8.5481e-29
7.97158e-29
7.37851e-29
6.78425e-29
6.203e-29
5.64712e-29
5.12644e-29
4.64803e-29
4.21613e-29
3.83241e-29
3.49636e-29
3.20587e-29
2.95772e-29
7.68164e-29
7.63195e-29
7.53351e-29
7.38819e-29
7.19887e-29
6.96942e-29
6.70471e-29
6.41055e-29
6.09354e-29
5.76084e-29
5.41987e-29
5.07799e-29
4.74209e-29
4.4183e-29
4.1117e-29
3.8262e-29
3.56449e-29
3.32805e-29
3.11737e-29
2.93207e-29
5.92813e-29
5.90013e-29
5.84451e-29
5.76207e-29
5.65404e-29
5.52212e-29
5.36848e-29
5.19582e-29
5.00728e-29
4.80641e-29
4.59704e-29
4.38316e-29
4.16875e-29
3.95756e-29
3.75302e-29
3.55807e-29
3.37508e-29
3.20579e-29
3.05139e-29
2.91247e-29
4.90549e-29
4.88851e-29
4.85471e-29
4.80447e-29
4.73835e-29
4.65715e-29
4.56193e-29
4.45402e-29
4.33502e-29
4.20683e-29
4.07152e-29
3.93138e-29
3.78876e-29
3.64602e-29
3.50541e-29
3.36901e-29
3.23867e-29
3.11589e-29
3.00187e-29
2.89748e-29
4.26873e-29
4.25784e-29
4.23615e-29
4.20383e-29
4.16117e-29
4.10855e-29
4.04654e-29
3.97584e-29
3.89732e-29
3.81203e-29
3.72118e-29
3.62612e-29
3.52829e-29
3.4292e-29
3.33035e-29
3.23319e-29
3.13907e-29
3.04919e-29
2.96456e-29
2.88601e-29
3.85226e-29
3.84498e-29
3.83048e-29
3.80883e-29
3.78018e-29
3.74476e-29
3.70286e-29
3.65487e-29
3.60131e-29
3.54278e-29
3.48001e-29
3.41385e-29
3.34519e-29
3.27504e-29
3.20439e-29
3.13427e-29
3.06563e-29
2.99939e-29
2.93636e-29
2.87723e-29
3.56967e-29
3.56466e-29
3.55466e-29
3.53971e-29
3.51991e-29
3.49537e-29
3.46627e-29
3.43284e-29
3.39539e-29
3.35429e-29
3.31001e-29
3.26307e-29
3.21408e-29
3.16369e-29
3.11259e-29
3.06149e-29
3.01108e-29
2.96205e-29
2.91502e-29
2.87053e-29
3.37263e-29
3.36909e-29
3.36204e-29
3.35149e-29
3.3375e-29
3.32014e-29
3.29952e-29
3.27578e-29
3.24912e-29
3.21977e-29
3.18804e-29
3.15428e-29
3.1189e-29
3.08232e-29
3.04505e-29
3.00756e-29
2.97038e-29
2.93398e-29
2.89886e-29
2.86542e-29
3.23243e-29
3.2299e-29
3.22484e-29
3.21728e-29
3.20724e-29
3.19477e-29
3.17994e-29
3.16285e-29
3.14362e-29
3.12241e-29
3.09943e-29
3.0749e-29
3.04912e-29
3.02239e-29
2.99503e-29
2.96742e-29
2.9399e-29
2.91285e-29
2.88662e-29
2.86153e-29
3.13121e-29
3.12937e-29
3.1257e-29
3.12022e-29
3.11293e-29
3.10388e-29
3.09311e-29
3.08068e-29
3.06668e-29
3.05123e-29
3.03445e-29
3.01652e-29
2.99762e-29
2.97798e-29
2.95784e-29
2.93744e-29
2.91705e-29
2.89694e-29
2.87736e-29
2.85857e-29
3.05736e-29
3.05602e-29
3.05333e-29
3.04932e-29
3.044e-29
3.03738e-29
3.02949e-29
3.0204e-29
3.01015e-29
2.99882e-29
2.98651e-29
2.97334e-29
2.95944e-29
2.94498e-29
2.93011e-29
2.91502e-29
2.89991e-29
2.88496e-29
2.87038e-29
2.85634e-29
3.00309e-29
3.0021e-29
3.00013e-29
2.99718e-29
2.99327e-29
2.9884e-29
2.98261e-29
2.97593e-29
2.96839e-29
2.96006e-29
2.951e-29
2.9413e-29
2.93106e-29
2.92039e-29
2.90941e-29
2.89825e-29
2.88705e-29
2.87595e-29
2.86511e-29
2.85464e-29
2.96302e-29
2.96229e-29
2.96084e-29
2.95867e-29
2.95578e-29
2.9522e-29
2.94793e-29
2.943e-29
2.93745e-29
2.93131e-29
2.92464e-29
2.91749e-29
2.90994e-29
2.90206e-29
2.89395e-29
2.8857e-29
2.87741e-29
2.86919e-29
2.86114e-29
2.85337e-29
2.93335e-29
2.93282e-29
2.93175e-29
2.93014e-29
2.92801e-29
2.92537e-29
2.92222e-29
2.91859e-29
2.9145e-29
2.90997e-29
2.90505e-29
2.89978e-29
2.89421e-29
2.88841e-29
2.88242e-29
2.87633e-29
2.87021e-29
2.86413e-29
2.85817e-29
2.85241e-29
2.91137e-29
2.91097e-29
2.91018e-29
2.909e-29
2.90743e-29
2.90548e-29
2.90316e-29
2.90048e-29
2.89746e-29
2.89413e-29
2.8905e-29
2.88662e-29
2.88252e-29
2.87824e-29
2.87383e-29
2.86935e-29
2.86483e-29
2.86035e-29
2.85595e-29
2.85169e-29
2.89508e-29
2.89479e-29
2.89421e-29
2.89333e-29
2.89217e-29
2.89074e-29
2.88903e-29
2.88705e-29
2.88483e-29
2.88238e-29
2.87971e-29
2.87686e-29
2.87384e-29
2.87069e-29
2.86745e-29
2.86415e-29
2.86083e-29
2.85753e-29
2.85429e-29
2.85116e-29
2.88303e-29
2.88282e-29
2.88239e-29
2.88174e-29
2.88089e-29
2.87983e-29
2.87857e-29
2.87712e-29
2.87549e-29
2.87368e-29
2.87172e-29
2.86963e-29
2.86741e-29
2.8651e-29
2.86272e-29
2.8603e-29
2.85786e-29
2.85544e-29
2.85306e-29
2.85076e-29
2.87414e-29
2.87399e-29
2.87367e-29
2.87319e-29
2.87257e-29
2.87179e-29
2.87086e-29
2.8698e-29
2.8686e-29
2.86727e-29
2.86583e-29
2.86429e-29
2.86267e-29
2.86098e-29
2.85923e-29
2.85746e-29
2.85567e-29
2.8539e-29
2.85215e-29
2.85047e-29
2.86762e-29
2.8675e-29
2.86727e-29
2.86692e-29
2.86646e-29
2.86588e-29
2.8652e-29
2.86442e-29
2.86354e-29
2.86256e-29
2.86151e-29
2.86038e-29
2.85919e-29
2.85795e-29
2.85667e-29
2.85537e-29
2.85406e-29
2.85276e-29
2.85149e-29
2.85025e-29
2.86286e-29
2.86277e-29
2.8626e-29
2.86234e-29
2.862e-29
2.86158e-29
2.86108e-29
2.8605e-29
2.85985e-29
2.85913e-29
2.85836e-29
2.85753e-29
2.85665e-29
2.85574e-29
2.8548e-29
2.85385e-29
2.85289e-29
2.85194e-29
2.851e-29
2.85009e-29
2.85943e-29
2.85937e-29
2.85924e-29
2.85905e-29
2.85879e-29
2.85848e-29
2.85811e-29
2.85768e-29
2.8572e-29
2.85667e-29
2.85609e-29
2.85548e-29
2.85483e-29
2.85415e-29
2.85346e-29
2.85276e-29
2.85205e-29
2.85134e-29
2.85065e-29
2.84998e-29
2.85701e-29
2.85696e-29
2.85687e-29
2.85672e-29
2.85653e-29
2.85629e-29
2.85601e-29
2.85569e-29
2.85533e-29
2.85493e-29
2.85449e-29
2.85403e-29
2.85354e-29
2.85304e-29
2.85251e-29
2.85198e-29
2.85145e-29
2.85092e-29
2.8504e-29
2.8499e-29
2.85538e-29
2.85534e-29
2.85527e-29
2.85515e-29
2.855e-29
2.85482e-29
2.8546e-29
2.85435e-29
2.85406e-29
2.85375e-29
2.85341e-29
2.85305e-29
2.85267e-29
2.85228e-29
2.85188e-29
2.85146e-29
2.85105e-29
2.85064e-29
2.85024e-29
2.84984e-29
2.85437e-29
2.85434e-29
2.85428e-29
2.85418e-29
2.85406e-29
2.85391e-29
2.85372e-29
2.85352e-29
2.85328e-29
2.85303e-29
2.85275e-29
2.85245e-29
2.85214e-29
2.85181e-29
2.85148e-29
2.85114e-29
2.8508e-29
2.85046e-29
2.85013e-29
2.84981e-29
2.85389e-29
2.85386e-29
2.8538e-29
2.85372e-29
2.85361e-29
2.85347e-29
2.85331e-29
2.85312e-29
2.85291e-29
2.85268e-29
2.85243e-29
2.85216e-29
2.85188e-29
2.85159e-29
2.85129e-29
2.85099e-29
2.85068e-29
2.85038e-29
2.85008e-29
2.8498e-29
)
;

boundaryField
{
    topWall
    {
        type            zeroGradient;
    }
    bottomWall
    {
        type            zeroGradient;
    }
    sideWallL
    {
        type            symmetry;
    }
    sideWallR
    {
        type            zeroGradient;
    }
    frontAndBack
    {
        type            empty;
    }
}


// ************************************************************************* //
