/*--------------------------------*- C++ -*----------------------------------*\
  =========                 |
  \\      /  F ield         | OpenFOAM: The Open Source CFD Toolbox
   \\    /   O peration     | Website:  https://openfoam.org
    \\  /    A nd           | Version:  7
     \\/     M anipulation  |
\*---------------------------------------------------------------------------*/
FoamFile
{
    version     2.0;
    format      ascii;
    class       volScalarField;
    location    "35";
    object      rhog;
}
// * * * * * * * * * * * * * * * * * * * * * * * * * * * * * * * * * * * * * //

dimensions      [1 -3 0 0 0 0 0];

internalField   nonuniform List<scalar> 
900
(
0.52959
0.528682
0.526819
0.523899
0.519764
0.514183
0.506845
0.49733
0.485081
0.469373
0.449253
0.423492
0.390513
0.348339
0.29462
0.227025
0.145404
0.0603826
0.00699908
2.77518e-06
0.0292434
0.0291088
0.0288335
0.0284056
0.0278062
0.0270102
0.0259852
0.0246928
0.0230891
0.0211291
0.0187742
0.0160066
0.0128553
0.00943575
0.00600446
0.002998
0.000953622
0.00011866
1.57673e-06
4.25905e-11
0.00252012
0.00250016
0.00245957
0.00239702
0.00231062
0.00219798
0.00205654
0.00188396
0.00167884
0.00144195
0.00117784
0.000896967
0.000617688
0.000366383
0.000172608
5.60301e-05
9.63448e-06
5.25491e-07
3.22662e-09
3.3142e-13
0.00022368
0.000221055
0.00021575
0.000207669
0.000196691
0.000182707
0.000165673
0.000145699
0.00012315
9.87789e-05
7.38374e-05
5.01024e-05
2.96803e-05
1.44645e-05
5.28433e-06
1.24642e-06
1.48608e-07
5.99779e-09
4.42968e-11
3.38764e-14
1.98151e-05
1.95044e-05
1.8881e-05
1.7943e-05
1.66913e-05
1.51353e-05
1.32999e-05
1.12346e-05
9.02205e-06
6.78355e-06
4.67518e-06
2.86661e-06
1.49862e-06
6.28164e-07
1.92982e-07
3.80966e-08
3.99629e-09
1.71966e-10
2.28306e-12
9.93062e-15
1.79316e-06
1.75827e-06
1.68876e-06
1.58544e-06
1.44999e-06
1.28558e-06
1.09756e-06
8.94091e-07
6.86443e-07
4.88531e-07
3.15145e-07
1.78751e-07
8.5527e-08
3.26219e-08
9.18646e-09
1.72492e-09
1.89972e-10
1.06719e-11
2.81904e-13
4.76332e-15
1.70775e-07
1.66878e-07
1.59168e-07
1.47837e-07
1.33222e-07
1.15864e-07
9.6554e-08
7.63595e-08
5.65863e-08
3.86433e-08
2.37945e-08
1.28395e-08
5.85105e-09
2.14756e-09
5.98293e-10
1.17889e-10
1.52414e-11
1.22157e-12
6.25276e-14
2.97114e-15
1.76268e-08
1.71766e-08
1.62911e-08
1.50023e-08
1.33631e-08
1.14515e-08
9.37278e-09
7.25764e-09
5.25179e-09
3.49616e-09
2.09909e-09
1.10878e-09
4.99757e-10
1.85298e-10
5.42018e-11
1.19764e-11
1.92931e-12
2.25506e-13
2.08242e-14
2.16232e-15
2.02581e-09
1.97015e-09
1.86119e-09
1.70385e-09
1.5059e-09
1.27825e-09
1.03487e-09
7.92e-10
5.66574e-10
3.73619e-10
2.23288e-10
1.18508e-10
5.45569e-11
2.12242e-11
6.79447e-12
1.75028e-12
3.59732e-13
6.05163e-14
9.28096e-15
1.73343e-15
2.65355e-10
2.57783e-10
2.43009e-10
2.21793e-10
1.95304e-10
1.65123e-10
1.33198e-10
1.017e-10
7.27839e-11
4.82547e-11
2.92324e-11
1.59308e-11
7.67924e-12
3.21924e-12
1.15683e-12
3.53777e-13
9.28773e-14
2.18256e-14
5.11919e-15
1.48066e-15
4.03625e-11
3.92036e-11
3.69471e-11
3.37168e-11
2.97003e-11
2.51455e-11
2.03496e-11
1.56349e-11
1.13126e-11
7.63616e-12
4.75852e-12
2.70696e-12
1.39023e-12
6.38483e-13
2.60815e-13
9.50542e-14
3.15019e-14
9.96058e-15
3.30413e-15
1.32049e-15
7.22678e-12
7.024e-12
6.62945e-12
6.06522e-12
5.36432e-12
4.56981e-12
3.73253e-12
2.90688e-12
2.14481e-12
1.48867e-12
9.64682e-13
5.79344e-13
3.20402e-13
1.62554e-13
7.57372e-14
3.27212e-14
1.34282e-14
5.48214e-15
2.39412e-15
1.21362e-15
1.53591e-12
1.49494e-12
1.41518e-12
1.30102e-12
1.15895e-12
9.97395e-13
8.26222e-13
6.5598e-13
4.96787e-13
3.5706e-13
2.42359e-13
1.54697e-13
9.26121e-14
5.20196e-14
2.75614e-14
1.39573e-14
6.92362e-15
3.49652e-15
1.88818e-15
1.1396e-15
3.88876e-13
3.79273e-13
3.60556e-13
3.33698e-13
3.00141e-13
2.6175e-13
2.20714e-13
1.79388e-13
1.40064e-13
1.04717e-13
7.47573e-14
5.08716e-14
3.30022e-14
2.04751e-14
1.22421e-14
7.15262e-15
4.17216e-15
2.49919e-15
1.58422e-15
1.08688e-15
1.17259e-13
1.14651e-13
1.09556e-13
1.02219e-13
9.29999e-14
8.23681e-14
7.0877e-14
5.91291e-14
4.77245e-14
3.7201e-14
2.79745e-14
2.02959e-14
1.42345e-14
9.69559e-15
6.46624e-15
4.27499e-15
2.84787e-15
1.94746e-15
1.39061e-15
1.04855e-15
4.19719e-14
4.11547e-14
3.95546e-14
3.72401e-14
3.43129e-14
3.0906e-14
2.71778e-14
2.33038e-14
1.94631e-14
1.58231e-14
1.25231e-14
9.66083e-15
7.28512e-15
5.39635e-15
3.95507e-15
2.89571e-15
2.14176e-15
1.61858e-15
1.26167e-15
1.02024e-15
1.77327e-14
1.744e-14
1.68652e-14
1.60298e-14
1.4966e-14
1.37157e-14
1.23301e-14
1.08664e-14
9.38497e-15
7.94427e-15
6.59628e-15
5.38177e-15
4.32716e-15
3.44342e-15
2.7273e-15
2.16446e-15
1.73363e-15
1.41086e-15
1.17284e-15
9.9908e-16
8.76747e-15
8.64889e-15
8.41541e-15
8.07446e-15
7.6372e-15
7.11847e-15
6.53641e-15
5.91187e-15
5.26731e-15
4.62543e-15
4.00745e-15
3.43153e-15
2.91138e-15
2.45548e-15
2.06698e-15
1.74432e-15
1.48235e-15
1.27369e-15
1.11002e-15
9.83129e-16
5.00899e-15
4.95537e-15
4.84951e-15
4.69422e-15
4.49375e-15
4.25381e-15
3.98149e-15
3.68509e-15
3.37378e-15
3.05715e-15
2.74461e-15
2.44474e-15
2.16473e-15
1.90994e-15
1.68364e-15
1.48709e-15
1.31981e-15
1.17992e-15
1.06471e-15
9.71024e-16
3.24955e-15
3.22285e-15
3.17002e-15
3.09219e-15
2.99112e-15
2.8692e-15
2.7294e-15
2.57533e-15
2.41101e-15
2.24084e-15
2.06926e-15
1.90057e-15
1.73864e-15
1.58671e-15
1.44717e-15
1.32156e-15
1.21055e-15
1.11409e-15
1.03152e-15
9.61795e-16
2.344e-15
2.32956e-15
2.30093e-15
2.25861e-15
2.20337e-15
2.13627e-15
2.05867e-15
1.97222e-15
1.87883e-15
1.78064e-15
1.67988e-15
1.57881e-15
1.4796e-15
1.38417e-15
1.29416e-15
1.21079e-15
1.1349e-15
1.06692e-15
1.00693e-15
9.54736e-16
1.83927e-15
1.8309e-15
1.81429e-15
1.78965e-15
1.75736e-15
1.7179e-15
1.67194e-15
1.62028e-15
1.56388e-15
1.50384e-15
1.44135e-15
1.37766e-15
1.314e-15
1.25155e-15
1.19139e-15
1.1344e-15
1.0813e-15
1.03258e-15
9.88553e-16
9.49324e-16
1.53887e-15
1.53374e-15
1.52353e-15
1.50836e-15
1.48841e-15
1.46391e-15
1.43521e-15
1.40273e-15
1.36696e-15
1.32851e-15
1.28802e-15
1.24623e-15
1.20387e-15
1.16167e-15
1.12032e-15
1.08047e-15
1.04265e-15
1.0073e-15
9.74733e-16
9.45172e-16
1.35031e-15
1.34702e-15
1.34046e-15
1.33068e-15
1.31779e-15
1.30191e-15
1.28322e-15
1.26193e-15
1.23835e-15
1.21279e-15
1.18565e-15
1.15735e-15
1.12834e-15
1.09909e-15
1.07007e-15
1.04171e-15
1.0144e-15
9.88504e-16
9.64292e-16
9.41984e-16
1.22684e-15
1.22464e-15
1.22027e-15
1.21374e-15
1.20511e-15
1.19445e-15
1.18185e-15
1.16746e-15
1.15142e-15
1.13394e-15
1.11524e-15
1.0956e-15
1.07529e-15
1.05463e-15
1.03392e-15
1.01347e-15
9.93554e-16
9.7445e-16
9.56381e-16
9.39538e-16
1.14323e-15
1.14172e-15
1.13872e-15
1.13423e-15
1.12829e-15
1.12094e-15
1.11223e-15
1.10224e-15
1.09107e-15
1.07884e-15
1.0657e-15
1.05181e-15
1.03735e-15
1.02254e-15
1.00758e-15
9.92678e-16
9.78051e-16
9.63891e-16
9.50377e-16
9.37663e-16
1.08512e-15
1.08406e-15
1.08195e-15
1.0788e-15
1.07462e-15
1.06945e-15
1.0633e-15
1.05624e-15
1.04832e-15
1.03961e-15
1.03022e-15
1.02026e-15
1.00984e-15
9.99101e-16
9.88193e-16
9.77264e-16
9.66463e-16
9.55935e-16
9.45816e-16
9.36227e-16
1.04391e-15
1.04316e-15
1.04165e-15
1.0394e-15
1.03642e-15
1.03271e-15
1.02831e-15
1.02324e-15
1.01755e-15
1.01127e-15
1.00449e-15
9.97261e-16
9.89679e-16
9.81835e-16
9.73831e-16
9.65774e-16
9.57772e-16
9.4993e-16
9.42351e-16
9.35129e-16
1.01424e-15
1.0137e-15
1.01261e-15
1.01099e-15
1.00883e-15
1.00615e-15
1.00296e-15
9.9928e-16
9.95143e-16
9.9058e-16
9.85633e-16
9.80354e-16
9.748e-16
9.69038e-16
9.63139e-16
9.5718e-16
9.51239e-16
9.45395e-16
9.39722e-16
9.34292e-16
9.92646e-16
9.92249e-16
9.91456e-16
9.90269e-16
9.88693e-16
9.86736e-16
9.84407e-16
9.8172e-16
9.78694e-16
9.75352e-16
9.71725e-16
9.67848e-16
9.63762e-16
9.59513e-16
9.55154e-16
9.5074e-16
9.46325e-16
9.4197e-16
9.37728e-16
9.33655e-16
9.76792e-16
9.765e-16
9.75918e-16
9.75047e-16
9.7389e-16
9.72453e-16
9.70742e-16
9.68768e-16
9.66544e-16
9.64086e-16
9.61417e-16
9.5856e-16
9.55545e-16
9.52407e-16
9.49181e-16
9.45908e-16
9.42629e-16
9.39385e-16
9.3622e-16
9.33171e-16
9.65088e-16
9.64873e-16
9.64444e-16
9.63802e-16
9.6295e-16
9.61891e-16
9.6063e-16
9.59175e-16
9.57536e-16
9.55724e-16
9.53754e-16
9.51645e-16
9.49418e-16
9.47098e-16
9.4471e-16
9.42284e-16
9.3985e-16
9.37439e-16
9.3508e-16
9.32805e-16
9.56418e-16
9.5626e-16
9.55943e-16
9.55469e-16
9.54839e-16
9.54057e-16
9.53126e-16
9.52052e-16
9.50842e-16
9.49504e-16
9.4805e-16
9.46492e-16
9.44847e-16
9.43131e-16
9.41365e-16
9.39569e-16
9.37764e-16
9.35975e-16
9.34222e-16
9.32529e-16
9.49983e-16
9.49866e-16
9.49632e-16
9.49281e-16
9.48816e-16
9.48238e-16
9.4755e-16
9.46757e-16
9.45863e-16
9.44875e-16
9.43802e-16
9.42652e-16
9.41437e-16
9.4017e-16
9.38864e-16
9.37536e-16
9.36202e-16
9.34876e-16
9.33578e-16
9.32321e-16
9.45204e-16
9.45117e-16
9.44944e-16
9.44685e-16
9.44341e-16
9.43914e-16
9.43407e-16
9.42821e-16
9.42161e-16
9.41433e-16
9.4064e-16
9.39792e-16
9.38896e-16
9.37962e-16
9.36999e-16
9.36019e-16
9.35034e-16
9.34055e-16
9.33095e-16
9.32165e-16
9.41657e-16
9.41593e-16
9.41465e-16
9.41274e-16
9.4102e-16
9.40705e-16
9.40331e-16
9.39899e-16
9.39412e-16
9.38875e-16
9.38292e-16
9.37667e-16
9.37007e-16
9.36319e-16
9.3561e-16
9.34889e-16
9.34163e-16
9.33442e-16
9.32734e-16
9.32049e-16
9.3903e-16
9.38982e-16
9.38888e-16
9.38747e-16
9.3856e-16
9.38328e-16
9.38051e-16
9.37733e-16
9.37375e-16
9.3698e-16
9.36551e-16
9.36092e-16
9.35607e-16
9.35101e-16
9.3458e-16
9.3405e-16
9.33517e-16
9.32987e-16
9.32467e-16
9.31962e-16
9.37089e-16
9.37054e-16
9.36984e-16
9.3688e-16
9.36743e-16
9.36572e-16
9.36368e-16
9.36134e-16
9.35871e-16
9.35581e-16
9.35265e-16
9.34928e-16
9.34572e-16
9.34201e-16
9.33819e-16
9.3343e-16
9.33039e-16
9.3265e-16
9.32268e-16
9.31898e-16
9.35662e-16
9.35636e-16
9.35585e-16
9.35508e-16
9.35407e-16
9.35281e-16
9.35131e-16
9.34959e-16
9.34766e-16
9.34552e-16
9.34321e-16
9.34073e-16
9.33812e-16
9.33539e-16
9.33259e-16
9.32974e-16
9.32687e-16
9.32402e-16
9.32122e-16
9.31851e-16
9.34621e-16
9.34602e-16
9.34564e-16
9.34507e-16
9.34432e-16
9.34339e-16
9.34229e-16
9.34102e-16
9.33959e-16
9.33802e-16
9.33632e-16
9.33449e-16
9.33257e-16
9.33057e-16
9.32851e-16
9.32642e-16
9.32431e-16
9.32222e-16
9.32016e-16
9.31817e-16
9.3387e-16
9.33856e-16
9.33828e-16
9.33786e-16
9.3373e-16
9.33661e-16
9.33579e-16
9.33484e-16
9.33378e-16
9.33262e-16
9.33135e-16
9.33e-16
9.32858e-16
9.3271e-16
9.32557e-16
9.32402e-16
9.32246e-16
9.32091e-16
9.31939e-16
9.31792e-16
9.3334e-16
9.3333e-16
9.33308e-16
9.33276e-16
9.33234e-16
9.33182e-16
9.3312e-16
9.33049e-16
9.32969e-16
9.32881e-16
9.32785e-16
9.32683e-16
9.32576e-16
9.32465e-16
9.3235e-16
9.32233e-16
9.32116e-16
9.31999e-16
9.31885e-16
9.31774e-16
9.32982e-16
9.32973e-16
9.32957e-16
9.32932e-16
9.32899e-16
9.32858e-16
9.3281e-16
9.32754e-16
9.32692e-16
9.32623e-16
9.32549e-16
9.32469e-16
9.32386e-16
9.32299e-16
9.3221e-16
9.32119e-16
9.32028e-16
9.31937e-16
9.31849e-16
9.31762e-16
9.3276e-16
9.32753e-16
9.3274e-16
9.32719e-16
9.32692e-16
9.32658e-16
9.32618e-16
9.32572e-16
9.32521e-16
9.32464e-16
9.32403e-16
9.32337e-16
9.32268e-16
9.32197e-16
9.32123e-16
9.32049e-16
9.31974e-16
9.31899e-16
9.31826e-16
9.31755e-16
9.32655e-16
9.32649e-16
9.32636e-16
9.32618e-16
9.32593e-16
9.32563e-16
9.32527e-16
9.32485e-16
9.32439e-16
9.32388e-16
9.32333e-16
9.32274e-16
9.32212e-16
9.32148e-16
9.32082e-16
9.32015e-16
9.31948e-16
9.31881e-16
9.31815e-16
9.31752e-16
)
;

boundaryField
{
    topWall
    {
        type            calculated;
        value           uniform 0;
    }
    bottomWall
    {
        type            zeroGradient;
    }
    sideWallL
    {
        type            symmetry;
    }
    sideWallR
    {
        type            calculated;
        value           uniform 0;
    }
    frontAndBack
    {
        type            empty;
    }
}


// ************************************************************************* //
