/*--------------------------------*- C++ -*----------------------------------*\
  =========                 |
  \\      /  F ield         | OpenFOAM: The Open Source CFD Toolbox
   \\    /   O peration     | Website:  https://openfoam.org
    \\  /    A nd           | Version:  7
     \\/     M anipulation  |
\*---------------------------------------------------------------------------*/
FoamFile
{
    version     2.0;
    format      ascii;
    class       volScalarField;
    location    "35";
    object      rhois;
}
// * * * * * * * * * * * * * * * * * * * * * * * * * * * * * * * * * * * * * //

dimensions      [1 -3 0 0 0 0 0];

internalField   nonuniform List<scalar> 
900
(
0.625167
0.624572
0.623348
0.621423
0.618685
0.61497
0.610046
0.603597
0.595188
0.584225
0.569878
0.550985
0.52587
0.492064
0.445791
0.381102
0.289087
0.162999
0.0360856
0.000122844
0.0991415
0.0988304
0.0981926
0.0971958
0.0957898
0.093904
0.0914443
0.0882897
0.0842897
0.0792624
0.0729998
0.0652846
0.0559351
0.0449059
0.0324914
0.0196828
0.00856555
0.00187648
8.10067e-05
4.11365e-08
0.0169344
0.0168386
0.016643
0.0163395
0.0159162
0.0153569
0.0146421
0.0137494
0.0126561
0.0113433
0.00980306
0.00805137
0.00614593
0.00420821
0.00243628
0.00107543
0.000299131
3.62145e-05
9.10827e-07
1.30332e-09
0.00286053
0.00283639
0.00278736
0.00271197
0.00260814
0.00247337
0.0023051
0.00210125
0.00186122
0.00158721
0.00128607
0.000971399
0.000664839
0.000394906
0.000190311
6.67937e-05
1.43157e-05
1.40762e-06
4.1393e-08
2.65118e-10
0.000482404
0.000476961
0.000465967
0.00044922
0.000426471
0.000397489
0.000362177
0.000320723
0.000273818
0.000222898
0.000170367
0.000119647
7.48662e-05
3.99246e-05
1.70084e-05
5.26681e-06
1.03554e-06
1.07912e-07
4.95716e-09
1.13916e-10
8.29326e-05
8.1772e-05
7.94404e-05
7.59222e-05
7.12076e-05
6.53107e-05
5.82942e-05
5.03008e-05
4.15873e-05
3.25515e-05
2.3734e-05
1.57697e-05
9.26736e-06
4.62507e-06
1.85558e-06
5.56735e-07
1.14236e-07
1.46118e-08
1.12551e-09
6.89552e-11
1.48595e-05
1.46159e-05
1.41291e-05
1.34011e-05
1.24377e-05
1.1253e-05
9.87327e-06
8.34265e-06
6.72695e-06
5.11429e-06
3.60899e-06
2.31598e-06
1.31625e-06
6.40507e-07
2.55909e-07
7.99308e-08
1.85638e-08
3.10697e-09
3.92206e-10
4.99678e-11
2.83513e-06
2.7832e-06
2.6799e-06
2.5266e-06
2.32597e-06
2.08277e-06
1.80459e-06
1.5026e-06
1.1918e-06
8.90376e-07
6.17712e-07
3.90978e-07
2.20932e-07
1.08623e-07
4.51423e-08
1.54059e-08
4.22904e-09
9.40332e-10
1.83655e-10
4.02026e-11
5.87492e-07
5.75947e-07
5.53066e-07
5.19321e-07
4.7555e-07
4.23088e-07
3.63901e-07
3.00663e-07
2.36719e-07
1.75846e-07
1.21771e-07
7.74902e-08
4.45752e-08
2.27668e-08
1.01448e-08
3.89195e-09
1.28459e-09
3.75258e-10
1.05955e-10
3.4531e-11
1.34496e-07
1.31761e-07
1.26355e-07
1.18419e-07
1.08191e-07
9.6029e-08
8.2433e-08
6.80502e-08
5.36512e-08
4.0064e-08
2.80654e-08
1.82448e-08
1.08809e-08
5.88766e-09
2.86601e-09
1.25259e-09
4.97272e-10
1.86112e-10
7.09739e-11
3.09617e-11
3.44906e-08
3.37882e-08
3.24025e-08
3.03744e-08
2.77706e-08
2.46884e-08
2.1259e-08
1.76467e-08
1.40407e-08
1.06387e-08
7.6214e-09
5.12343e-09
3.20897e-09
1.86231e-09
9.99652e-10
4.98996e-10
2.35798e-10
1.09443e-10
5.2936e-11
2.85875e-11
1.001e-08
9.81208e-09
9.42202e-09
8.8519e-09
8.12108e-09
7.25721e-09
6.29671e-09
5.28428e-09
4.2705e-09
3.30755e-09
2.44295e-09
1.71269e-09
1.13565e-09
7.11272e-10
4.21934e-10
2.39298e-10
1.32244e-10
7.34418e-11
4.26661e-11
2.69446e-11
3.31025e-09
3.24861e-09
3.12712e-09
2.94954e-09
2.7218e-09
2.45226e-09
2.15179e-09
1.83359e-09
1.51251e-09
1.20386e-09
9.21771e-10
6.77376e-10
4.77314e-10
3.22998e-10
2.11002e-10
1.3446e-10
8.49938e-11
5.45132e-11
3.63739e-11
2.57744e-11
1.25192e-09
1.23062e-09
1.18862e-09
1.12716e-09
1.04817e-09
9.5437e-10
8.49274e-10
7.37133e-10
6.22736e-10
5.11075e-10
4.06862e-10
3.14003e-10
2.35139e-10
1.71367e-10
1.22269e-10
8.62138e-11
6.08549e-11
4.36556e-11
3.2301e-11
2.49229e-11
5.41918e-10
5.33762e-10
5.17659e-10
4.94045e-10
4.63599e-10
4.27273e-10
3.86295e-10
3.42157e-10
2.96555e-10
2.51282e-10
2.08082e-10
1.68477e-10
1.33613e-10
1.04146e-10
8.02159e-11
6.15048e-11
4.73686e-11
3.69952e-11
2.95527e-11
2.42932e-11
2.67908e-10
2.64459e-10
2.57639e-10
2.47613e-10
2.34635e-10
2.19063e-10
2.01363e-10
1.82101e-10
1.61932e-10
1.4156e-10
1.21692e-10
1.02976e-10
8.59445e-11
7.09655e-11
5.82206e-11
4.77096e-11
3.92835e-11
3.26923e-11
2.76386e-11
2.3822e-11
1.5037e-10
1.4877e-10
1.45601e-10
1.40929e-10
1.34856e-10
1.27526e-10
1.19129e-10
1.09896e-10
1.00101e-10
9.0043e-11
8.00315e-11
7.03644e-11
6.13039e-11
5.30552e-11
4.57531e-11
3.94579e-11
3.41609e-11
2.9799e-11
2.6273e-11
2.34661e-11
9.48331e-11
9.40257e-11
9.24241e-11
9.00559e-11
8.69648e-11
8.32126e-11
7.88809e-11
7.40722e-11
6.89078e-11
6.35244e-11
5.80675e-11
5.26828e-11
4.7506e-11
4.26532e-11
3.82137e-11
3.42447e-11
3.07719e-11
2.77924e-11
2.52805e-11
2.31956e-11
6.6234e-11
6.57951e-11
6.4923e-11
6.36301e-11
6.19359e-11
5.98684e-11
5.74652e-11
5.47739e-11
5.1852e-11
4.87659e-11
4.55881e-11
4.23938e-11
3.92567e-11
3.62441e-11
3.34127e-11
3.08062e-11
2.84531e-11
2.63671e-11
2.4549e-11
2.29889e-11
5.03648e-11
5.01103e-11
4.96039e-11
4.88513e-11
4.78618e-11
4.66486e-11
4.52299e-11
4.3629e-11
4.18748e-11
4.00012e-11
3.80464e-11
3.60511e-11
3.4057e-11
3.21039e-11
3.02282e-11
2.84604e-11
2.68243e-11
2.53359e-11
2.40039e-11
2.28306e-11
4.09835e-11
4.08276e-11
4.05171e-11
4.00547e-11
3.9445e-11
3.86944e-11
3.78123e-11
3.68106e-11
3.57045e-11
3.45122e-11
3.32548e-11
3.19553e-11
3.0638e-11
2.93275e-11
2.80469e-11
2.68174e-11
2.56569e-11
2.45793e-11
2.35947e-11
2.27089e-11
3.51377e-11
3.50378e-11
3.48386e-11
3.45415e-11
3.41488e-11
3.36638e-11
3.30915e-11
3.24382e-11
3.17124e-11
3.09242e-11
3.00858e-11
2.92106e-11
2.83136e-11
2.741e-11
2.65149e-11
2.56429e-11
2.4807e-11
2.40182e-11
2.32855e-11
2.26153e-11
3.13349e-11
3.12685e-11
3.11359e-11
3.09379e-11
3.06757e-11
3.03511e-11
2.99667e-11
2.95263e-11
2.90345e-11
2.84974e-11
2.79221e-11
2.73171e-11
2.66914e-11
2.6055e-11
2.54179e-11
2.47901e-11
2.41809e-11
2.35988e-11
2.3051e-11
2.25433e-11
2.8774e-11
2.87284e-11
2.86375e-11
2.85017e-11
2.83215e-11
2.8098e-11
2.78327e-11
2.75278e-11
2.71861e-11
2.68112e-11
2.64076e-11
2.59806e-11
2.5536e-11
2.50804e-11
2.46206e-11
2.41634e-11
2.37156e-11
2.32835e-11
2.28727e-11
2.24879e-11
2.70011e-11
2.69692e-11
2.69054e-11
2.681e-11
2.66834e-11
2.65261e-11
2.6339e-11
2.61235e-11
2.58813e-11
2.56148e-11
2.53267e-11
2.50205e-11
2.47002e-11
2.437e-11
2.40346e-11
2.36989e-11
2.33676e-11
2.30455e-11
2.27368e-11
2.24454e-11
2.57472e-11
2.57244e-11
2.56788e-11
2.56106e-11
2.552e-11
2.54074e-11
2.52733e-11
2.51185e-11
2.49443e-11
2.47521e-11
2.45438e-11
2.43216e-11
2.40883e-11
2.38467e-11
2.36002e-11
2.33522e-11
2.31061e-11
2.28654e-11
2.26333e-11
2.24127e-11
2.48454e-11
2.48288e-11
2.47958e-11
2.47464e-11
2.46807e-11
2.4599e-11
2.45017e-11
2.43893e-11
2.42625e-11
2.41224e-11
2.39703e-11
2.38076e-11
2.36364e-11
2.34585e-11
2.32764e-11
2.30924e-11
2.29091e-11
2.27289e-11
2.25543e-11
2.23876e-11
2.41885e-11
2.41764e-11
2.41523e-11
2.41161e-11
2.4068e-11
2.40082e-11
2.39369e-11
2.38545e-11
2.37615e-11
2.36586e-11
2.35467e-11
2.34269e-11
2.33005e-11
2.3169e-11
2.30339e-11
2.28971e-11
2.27603e-11
2.26254e-11
2.24942e-11
2.23685e-11
2.37056e-11
2.36967e-11
2.36789e-11
2.36522e-11
2.36168e-11
2.35727e-11
2.35201e-11
2.34593e-11
2.33907e-11
2.33147e-11
2.32321e-11
2.31435e-11
2.30499e-11
2.29523e-11
2.28519e-11
2.275e-11
2.26479e-11
2.2547e-11
2.24485e-11
2.23538e-11
2.33481e-11
2.33415e-11
2.33284e-11
2.33086e-11
2.32824e-11
2.32497e-11
2.32108e-11
2.31658e-11
2.3115e-11
2.30587e-11
2.29974e-11
2.29317e-11
2.28623e-11
2.27898e-11
2.27151e-11
2.26392e-11
2.2563e-11
2.24876e-11
2.24138e-11
2.23427e-11
2.30824e-11
2.30775e-11
2.30677e-11
2.3053e-11
2.30335e-11
2.30093e-11
2.29804e-11
2.2947e-11
2.29093e-11
2.28675e-11
2.28221e-11
2.27733e-11
2.27217e-11
2.26678e-11
2.26123e-11
2.25558e-11
2.2499e-11
2.24426e-11
2.23875e-11
2.23342e-11
2.28842e-11
2.28806e-11
2.28733e-11
2.28624e-11
2.28479e-11
2.28299e-11
2.28084e-11
2.27836e-11
2.27556e-11
2.27246e-11
2.26908e-11
2.26546e-11
2.26163e-11
2.25763e-11
2.2535e-11
2.2493e-11
2.24507e-11
2.24087e-11
2.23676e-11
2.23278e-11
2.27363e-11
2.27336e-11
2.27282e-11
2.272e-11
2.27093e-11
2.26959e-11
2.26799e-11
2.26615e-11
2.26407e-11
2.26177e-11
2.25926e-11
2.25657e-11
2.25373e-11
2.25076e-11
2.2477e-11
2.24458e-11
2.24144e-11
2.23832e-11
2.23526e-11
2.2323e-11
2.26258e-11
2.26238e-11
2.26198e-11
2.26137e-11
2.26057e-11
2.25958e-11
2.25839e-11
2.25702e-11
2.25548e-11
2.25378e-11
2.25192e-11
2.24993e-11
2.24782e-11
2.24562e-11
2.24335e-11
2.24104e-11
2.23872e-11
2.2364e-11
2.23413e-11
2.23194e-11
2.25434e-11
2.25419e-11
2.25389e-11
2.25344e-11
2.25285e-11
2.25211e-11
2.25123e-11
2.25022e-11
2.24907e-11
2.24781e-11
2.24644e-11
2.24496e-11
2.24341e-11
2.24178e-11
2.24011e-11
2.2384e-11
2.23668e-11
2.23497e-11
2.23329e-11
2.23166e-11
2.2482e-11
2.24809e-11
2.24786e-11
2.24753e-11
2.24709e-11
2.24655e-11
2.2459e-11
2.24515e-11
2.2443e-11
2.24337e-11
2.24235e-11
2.24127e-11
2.24012e-11
2.23892e-11
2.23768e-11
2.23643e-11
2.23516e-11
2.2339e-11
2.23266e-11
2.23146e-11
2.24364e-11
2.24355e-11
2.24339e-11
2.24314e-11
2.24282e-11
2.24242e-11
2.24194e-11
2.24138e-11
2.24076e-11
2.24007e-11
2.23932e-11
2.23852e-11
2.23768e-11
2.2368e-11
2.23589e-11
2.23496e-11
2.23403e-11
2.2331e-11
2.23219e-11
2.23131e-11
2.24026e-11
2.2402e-11
2.24008e-11
2.2399e-11
2.23966e-11
2.23936e-11
2.239e-11
2.2386e-11
2.23814e-11
2.23763e-11
2.23708e-11
2.23649e-11
2.23587e-11
2.23522e-11
2.23456e-11
2.23388e-11
2.23319e-11
2.23251e-11
2.23184e-11
2.2312e-11
2.23777e-11
2.23773e-11
2.23764e-11
2.23751e-11
2.23733e-11
2.23711e-11
2.23685e-11
2.23655e-11
2.23621e-11
2.23584e-11
2.23543e-11
2.235e-11
2.23454e-11
2.23407e-11
2.23358e-11
2.23308e-11
2.23258e-11
2.23208e-11
2.23159e-11
2.23111e-11
2.23596e-11
2.23592e-11
2.23586e-11
2.23576e-11
2.23563e-11
2.23546e-11
2.23527e-11
2.23505e-11
2.2348e-11
2.23453e-11
2.23423e-11
2.23391e-11
2.23357e-11
2.23322e-11
2.23286e-11
2.2325e-11
2.23213e-11
2.23176e-11
2.2314e-11
2.23105e-11
2.23465e-11
2.23462e-11
2.23457e-11
2.2345e-11
2.2344e-11
2.23428e-11
2.23414e-11
2.23397e-11
2.23379e-11
2.23358e-11
2.23336e-11
2.23312e-11
2.23288e-11
2.23262e-11
2.23235e-11
2.23208e-11
2.23181e-11
2.23153e-11
2.23127e-11
2.23101e-11
2.23372e-11
2.2337e-11
2.23366e-11
2.23361e-11
2.23353e-11
2.23344e-11
2.23333e-11
2.23321e-11
2.23307e-11
2.23292e-11
2.23275e-11
2.23257e-11
2.23238e-11
2.23219e-11
2.23199e-11
2.23178e-11
2.23158e-11
2.23137e-11
2.23117e-11
2.23098e-11
2.23309e-11
2.23308e-11
2.23305e-11
2.23301e-11
2.23295e-11
2.23288e-11
2.23279e-11
2.23269e-11
2.23258e-11
2.23246e-11
2.23233e-11
2.2322e-11
2.23205e-11
2.2319e-11
2.23174e-11
2.23158e-11
2.23142e-11
2.23127e-11
2.23111e-11
2.23096e-11
2.23271e-11
2.23269e-11
2.23267e-11
2.23263e-11
2.23259e-11
2.23253e-11
2.23246e-11
2.23238e-11
2.23229e-11
2.23219e-11
2.23208e-11
2.23196e-11
2.23184e-11
2.23172e-11
2.23159e-11
2.23146e-11
2.23133e-11
2.2312e-11
2.23107e-11
2.23095e-11
2.23252e-11
2.23251e-11
2.23249e-11
2.23246e-11
2.23241e-11
2.23236e-11
2.2323e-11
2.23222e-11
2.23214e-11
2.23205e-11
2.23196e-11
2.23185e-11
2.23175e-11
2.23163e-11
2.23152e-11
2.2314e-11
2.23128e-11
2.23117e-11
2.23105e-11
2.23094e-11
)
;

boundaryField
{
    topWall
    {
        type            zeroGradient;
    }
    bottomWall
    {
        type            zeroGradient;
    }
    sideWallL
    {
        type            symmetry;
    }
    sideWallR
    {
        type            zeroGradient;
    }
    frontAndBack
    {
        type            empty;
    }
}


// ************************************************************************* //
