/*--------------------------------*- C++ -*----------------------------------*\
  =========                 |
  \\      /  F ield         | OpenFOAM: The Open Source CFD Toolbox
   \\    /   O peration     | Website:  https://openfoam.org
    \\  /    A nd           | Version:  7
     \\/     M anipulation  |
\*---------------------------------------------------------------------------*/
FoamFile
{
    version     2.0;
    format      ascii;
    class       volScalarField;
    location    "35";
    object      rhot1;
}
// * * * * * * * * * * * * * * * * * * * * * * * * * * * * * * * * * * * * * //

dimensions      [1 -3 0 0 0 0 0];

internalField   nonuniform List<scalar> 
900
(
1.93737
1.9352
1.93075
1.92376
1.91382
1.90035
1.88251
1.85918
1.82881
1.78928
1.73767
1.66986
1.58004
1.45973
1.29632
1.07107
0.760201
0.366352
0.0507344
2.62679e-05
0.192429
0.191626
0.189982
0.187422
0.183826
0.179034
0.172834
0.164968
0.155131
0.14299
0.128219
0.110588
0.0901202
0.0673778
0.0438907
0.0225899
0.00749445
0.000997867
1.51829e-05
5.74041e-10
0.0190659
0.0189209
0.0186259
0.0181709
0.0175414
0.016719
0.0156836
0.0144157
0.012902
0.0111439
0.00916933
0.00704991
0.00491708
0.00296756
0.0014325
0.000481897
8.75751e-05
5.23368e-06
3.77705e-08
5.2475e-12
0.00183492
0.0018141
0.00177199
0.00170778
0.00162041
0.00150885
0.00137258
0.00121217
0.00103018
0.000832217
0.000627926
0.000431391
0.000259841
0.000129546
4.88557e-05
1.20608e-05
1.53794e-06
6.87389e-08
5.94764e-10
5.80651e-13
0.000175127
0.000172469
0.000167133
0.000159092
0.000148341
0.000134938
0.000119069
0.000101127
8.17833e-05
6.20549e-05
4.32787e-05
2.6953e-05
1.4384e-05
6.19796e-06
1.97681e-06
4.10905e-07
4.63211e-08
2.20588e-09
3.37621e-11
1.77967e-13
1.70579e-05
1.67366e-05
1.60961e-05
1.51422e-05
1.38887e-05
1.23619e-05
1.06079e-05
8.69856e-06
6.73532e-06
4.84601e-06
3.17029e-06
1.83111e-06
8.97021e-07
3.52851e-07
1.03478e-07
2.05019e-08
2.42485e-09
1.49686e-10
4.47003e-12
8.77358e-14
1.74649e-06
1.70792e-06
1.63152e-06
1.51902e-06
1.37349e-06
1.19996e-06
1.00589e-06
8.01569e-07
5.99781e-07
4.14666e-07
2.5935e-07
1.42753e-07
6.67216e-08
2.52939e-08
7.34395e-09
1.52551e-09
2.10919e-10
1.83924e-11
1.04421e-12
5.57088e-14
1.93407e-07
1.88627e-07
1.79213e-07
1.65481e-07
1.47958e-07
1.27433e-07
1.04984e-07
8.1972e-08
5.9944e-08
4.04363e-08
2.46835e-08
1.33114e-08
6.15731e-09
2.35801e-09
7.18067e-10
1.66766e-10
2.85555e-11
3.59283e-12
3.61706e-13
4.10314e-14
2.37802e-08
2.31481e-08
2.19089e-08
2.01151e-08
1.78506e-08
1.5234e-08
1.24192e-08
9.58844e-09
6.93506e-09
4.63609e-09
2.81786e-09
1.52699e-09
7.21142e-10
2.89431e-10
9.62316e-11
2.59461e-11
5.62978e-12
1.00898e-12
1.66128e-13
3.31649e-14
3.32052e-09
3.22888e-09
3.04981e-09
2.79201e-09
2.46896e-09
2.09909e-09
1.70536e-09
1.31379e-09
9.50728e-10
6.3897e-10
3.9358e-10
2.18866e-10
1.08105e-10
4.66625e-11
1.73608e-11
5.53056e-12
1.52238e-12
3.77488e-13
9.37567e-14
2.84931e-14
5.3619e-10
5.21306e-10
4.92281e-10
4.50625e-10
3.98641e-10
3.39399e-10
2.76626e-10
2.14427e-10
1.56845e-10
1.07283e-10
6.79292e-11
3.93881e-11
2.06933e-11
9.76143e-12
4.11396e-12
1.55431e-12
5.36579e-13
1.77429e-13
6.15671e-14
2.55158e-14
1.01455e-10
9.87037e-11
9.33435e-11
8.56587e-11
7.60783e-11
6.51662e-11
5.35956e-11
4.20984e-11
3.13869e-11
2.20599e-11
1.45106e-11
8.8699e-12
5.00821e-12
2.60283e-12
1.24671e-12
5.55752e-13
2.36098e-13
9.99631e-14
4.51853e-14
2.35209e-14
2.26783e-11
2.20941e-11
2.09554e-11
1.93215e-11
1.72812e-11
1.49503e-11
1.24663e-11
9.9779e-12
7.63059e-12
5.54869e-12
3.81843e-12
2.47684e-12
1.5107e-12
8.66867e-13
4.70508e-13
2.44721e-13
1.24917e-13
6.49225e-14
3.59727e-14
2.21346e-14
6.01036e-12
5.86719e-12
5.58778e-12
5.18592e-12
4.6822e-12
4.10344e-12
3.48146e-12
2.8509e-12
2.24608e-12
1.69724e-12
1.22685e-12
8.46995e-13
5.5862e-13
3.53091e-13
2.15513e-13
1.28745e-13
7.68353e-14
4.70453e-14
3.03894e-14
2.11448e-14
1.88832e-12
1.84786e-12
1.76874e-12
1.65456e-12
1.51066e-12
1.34407e-12
1.16312e-12
9.77007e-13
7.95034e-13
6.25695e-13
4.75769e-13
3.4959e-13
2.4872e-13
1.72116e-13
1.16769e-13
7.85867e-14
5.32839e-14
3.70345e-14
2.68088e-14
2.04237e-14
7.0118e-13
6.88059e-13
6.62336e-13
6.25059e-13
5.77788e-13
5.22576e-13
4.61893e-13
3.98499e-13
3.35251e-13
2.74864e-13
2.19653e-13
1.71305e-13
1.30743e-13
9.8114e-14
7.28965e-14
5.41099e-14
4.05517e-14
3.10103e-14
2.44117e-14
1.98904e-14
3.06034e-13
3.0119e-13
2.91671e-13
2.77813e-13
2.60122e-13
2.39268e-13
2.16066e-13
1.91444e-13
1.66386e-13
1.41863e-13
1.18752e-13
9.77614e-14
7.9371e-14
6.38103e-14
5.10699e-14
4.09473e-14
3.31126e-14
2.71775e-14
2.27535e-14
1.94913e-14
1.55653e-13
1.5364e-13
1.49673e-13
1.43873e-13
1.36419e-13
1.27552e-13
1.1757e-13
1.06817e-13
9.56684e-14
8.45063e-14
7.36952e-14
6.35523e-14
5.43245e-14
4.61726e-14
3.91678e-14
3.32997e-14
2.84934e-14
2.46317e-14
2.15772e-14
1.91901e-14
9.10725e-14
9.01426e-14
8.83054e-14
8.56071e-14
8.21178e-14
7.7932e-14
7.31681e-14
6.79656e-14
6.24804e-14
5.68768e-14
5.13181e-14
4.59556e-14
4.09187e-14
3.63062e-14
3.21824e-14
2.85763e-14
2.54857e-14
2.28837e-14
2.07265e-14
1.89614e-14
6.02308e-14
5.97594e-14
5.88261e-14
5.745e-14
5.56604e-14
5.34972e-14
5.10114e-14
4.82641e-14
4.53249e-14
4.22699e-14
3.91773e-14
3.61234e-14
3.31781e-14
3.04006e-14
2.78363e-14
2.55156e-14
2.34536e-14
2.16522e-14
2.01022e-14
1.87869e-14
4.40957e-14
4.38371e-14
4.3324e-14
4.2565e-14
4.1573e-14
4.03662e-14
3.89678e-14
3.74065e-14
3.57155e-14
3.39324e-14
3.20967e-14
3.02491e-14
2.84285e-14
2.66705e-14
2.50054e-14
2.34566e-14
2.20408e-14
2.07673e-14
1.96389e-14
1.86534e-14
3.49833e-14
3.48317e-14
3.45304e-14
3.40834e-14
3.34968e-14
3.27792e-14
3.19421e-14
3.09995e-14
2.99684e-14
2.88681e-14
2.772e-14
2.65465e-14
2.53701e-14
2.42127e-14
2.30939e-14
2.20307e-14
2.10367e-14
2.01218e-14
1.92923e-14
1.8551e-14
2.95025e-14
2.94087e-14
2.92219e-14
2.89441e-14
2.85783e-14
2.81289e-14
2.76018e-14
2.70042e-14
2.63451e-14
2.56353e-14
2.48865e-14
2.41118e-14
2.33247e-14
2.25387e-14
2.17667e-14
2.10207e-14
2.03108e-14
1.96456e-14
1.90313e-14
1.84724e-14
2.60338e-14
2.5973e-14
2.5852e-14
2.56717e-14
2.54337e-14
2.51403e-14
2.47945e-14
2.44005e-14
2.39633e-14
2.34888e-14
2.29841e-14
2.24569e-14
2.19157e-14
2.13689e-14
2.08252e-14
2.02928e-14
1.97793e-14
1.92912e-14
1.8834e-14
1.8412e-14
2.37473e-14
2.37066e-14
2.36254e-14
2.35043e-14
2.33441e-14
2.3146e-14
2.29118e-14
2.26439e-14
2.23451e-14
2.20191e-14
2.16701e-14
2.13028e-14
2.09226e-14
2.05352e-14
2.01462e-14
1.97615e-14
1.93864e-14
1.90259e-14
1.86845e-14
1.83657e-14
2.21911e-14
2.21631e-14
2.21071e-14
2.20235e-14
2.19127e-14
2.17755e-14
2.16129e-14
2.14263e-14
2.12174e-14
2.09885e-14
2.07423e-14
2.04818e-14
2.02104e-14
1.9932e-14
1.96504e-14
1.93697e-14
1.90938e-14
1.88264e-14
1.85709e-14
1.83302e-14
2.11052e-14
2.10854e-14
2.1046e-14
2.09871e-14
2.09089e-14
2.0812e-14
2.06969e-14
2.05645e-14
2.04159e-14
2.02526e-14
2.00762e-14
1.98889e-14
1.96928e-14
1.94907e-14
1.92851e-14
1.90789e-14
1.8875e-14
1.8676e-14
1.84846e-14
1.8303e-14
2.03328e-14
2.03186e-14
2.02904e-14
2.02482e-14
2.01922e-14
2.01226e-14
2.004e-14
1.99447e-14
1.98377e-14
1.97197e-14
1.9592e-14
1.94559e-14
1.9313e-14
1.91651e-14
1.90141e-14
1.88619e-14
1.87107e-14
1.85624e-14
1.8419e-14
1.82822e-14
1.97753e-14
1.97651e-14
1.97446e-14
1.97141e-14
1.96734e-14
1.9623e-14
1.9563e-14
1.94938e-14
1.94159e-14
1.93299e-14
1.92367e-14
1.91371e-14
1.90323e-14
1.89235e-14
1.88121e-14
1.86995e-14
1.85872e-14
1.84766e-14
1.83692e-14
1.82663e-14
1.93687e-14
1.93612e-14
1.93463e-14
1.93239e-14
1.92942e-14
1.92573e-14
1.92134e-14
1.91628e-14
1.91057e-14
1.90427e-14
1.89742e-14
1.8901e-14
1.88238e-14
1.87436e-14
1.86612e-14
1.85777e-14
1.84942e-14
1.84117e-14
1.83314e-14
1.82543e-14
1.90697e-14
1.90642e-14
1.90533e-14
1.90368e-14
1.9015e-14
1.89879e-14
1.89556e-14
1.89183e-14
1.88764e-14
1.88299e-14
1.87795e-14
1.87255e-14
1.86686e-14
1.86092e-14
1.85482e-14
1.84863e-14
1.84242e-14
1.83628e-14
1.83029e-14
1.82451e-14
1.88488e-14
1.88448e-14
1.88367e-14
1.88245e-14
1.88084e-14
1.87884e-14
1.87646e-14
1.87371e-14
1.87062e-14
1.86719e-14
1.86347e-14
1.85948e-14
1.85527e-14
1.85088e-14
1.84636e-14
1.84177e-14
1.83716e-14
1.83259e-14
1.82813e-14
1.82382e-14
1.8685e-14
1.8682e-14
1.8676e-14
1.86671e-14
1.86552e-14
1.86404e-14
1.86228e-14
1.86025e-14
1.85796e-14
1.85543e-14
1.85268e-14
1.84973e-14
1.84662e-14
1.84337e-14
1.84003e-14
1.83663e-14
1.83321e-14
1.82982e-14
1.8265e-14
1.82329e-14
1.85633e-14
1.85611e-14
1.85567e-14
1.85501e-14
1.85413e-14
1.85303e-14
1.85173e-14
1.85023e-14
1.84854e-14
1.84667e-14
1.84464e-14
1.84246e-14
1.84016e-14
1.83777e-14
1.83529e-14
1.83278e-14
1.83025e-14
1.82774e-14
1.82528e-14
1.8229e-14
1.84729e-14
1.84713e-14
1.8468e-14
1.84631e-14
1.84566e-14
1.84485e-14
1.84389e-14
1.84278e-14
1.84154e-14
1.84016e-14
1.83866e-14
1.83705e-14
1.83535e-14
1.83358e-14
1.83176e-14
1.8299e-14
1.82804e-14
1.82618e-14
1.82437e-14
1.8226e-14
1.84058e-14
1.84046e-14
1.84022e-14
1.83986e-14
1.83937e-14
1.83878e-14
1.83807e-14
1.83725e-14
1.83633e-14
1.83531e-14
1.83421e-14
1.83303e-14
1.83178e-14
1.83047e-14
1.82913e-14
1.82776e-14
1.82639e-14
1.82502e-14
1.82368e-14
1.82238e-14
1.83561e-14
1.83552e-14
1.83534e-14
1.83507e-14
1.83472e-14
1.83428e-14
1.83375e-14
1.83315e-14
1.83247e-14
1.83173e-14
1.83091e-14
1.83004e-14
1.82912e-14
1.82817e-14
1.82718e-14
1.82617e-14
1.82516e-14
1.82416e-14
1.82317e-14
1.82222e-14
1.83193e-14
1.83186e-14
1.83173e-14
1.83154e-14
1.83128e-14
1.83095e-14
1.83057e-14
1.83012e-14
1.82962e-14
1.82907e-14
1.82848e-14
1.82784e-14
1.82716e-14
1.82646e-14
1.82574e-14
1.825e-14
1.82426e-14
1.82352e-14
1.8228e-14
1.8221e-14
1.82923e-14
1.82918e-14
1.82908e-14
1.82894e-14
1.82875e-14
1.82851e-14
1.82822e-14
1.8279e-14
1.82753e-14
1.82713e-14
1.82669e-14
1.82622e-14
1.82572e-14
1.82521e-14
1.82468e-14
1.82414e-14
1.82359e-14
1.82305e-14
1.82252e-14
1.82201e-14
1.82726e-14
1.82722e-14
1.82715e-14
1.82704e-14
1.8269e-14
1.82672e-14
1.82651e-14
1.82627e-14
1.826e-14
1.82571e-14
1.82538e-14
1.82504e-14
1.82467e-14
1.82429e-14
1.8239e-14
1.82351e-14
1.82311e-14
1.82271e-14
1.82232e-14
1.82194e-14
1.82583e-14
1.82581e-14
1.82575e-14
1.82567e-14
1.82557e-14
1.82544e-14
1.82528e-14
1.8251e-14
1.8249e-14
1.82468e-14
1.82444e-14
1.82419e-14
1.82392e-14
1.82364e-14
1.82335e-14
1.82305e-14
1.82276e-14
1.82246e-14
1.82218e-14
1.8219e-14
1.82483e-14
1.82481e-14
1.82477e-14
1.82471e-14
1.82463e-14
1.82453e-14
1.82441e-14
1.82428e-14
1.82413e-14
1.82396e-14
1.82378e-14
1.82359e-14
1.82338e-14
1.82317e-14
1.82295e-14
1.82273e-14
1.82251e-14
1.82229e-14
1.82207e-14
1.82186e-14
1.82415e-14
1.82414e-14
1.8241e-14
1.82406e-14
1.82399e-14
1.82392e-14
1.82382e-14
1.82372e-14
1.8236e-14
1.82347e-14
1.82333e-14
1.82318e-14
1.82302e-14
1.82286e-14
1.82269e-14
1.82252e-14
1.82234e-14
1.82217e-14
1.822e-14
1.82184e-14
1.82373e-14
1.82372e-14
1.82369e-14
1.82365e-14
1.8236e-14
1.82354e-14
1.82346e-14
1.82337e-14
1.82328e-14
1.82317e-14
1.82305e-14
1.82293e-14
1.8228e-14
1.82266e-14
1.82252e-14
1.82238e-14
1.82224e-14
1.8221e-14
1.82196e-14
1.82183e-14
1.82353e-14
1.82352e-14
1.8235e-14
1.82346e-14
1.82341e-14
1.82336e-14
1.82329e-14
1.82321e-14
1.82312e-14
1.82303e-14
1.82292e-14
1.82281e-14
1.82269e-14
1.82257e-14
1.82245e-14
1.82232e-14
1.82219e-14
1.82206e-14
1.82194e-14
1.82182e-14
)
;

boundaryField
{
    topWall
    {
        type            zeroGradient;
    }
    bottomWall
    {
        type            zeroGradient;
    }
    sideWallL
    {
        type            symmetry;
    }
    sideWallR
    {
        type            calculated;
        value           uniform 0;
    }
    frontAndBack
    {
        type            empty;
    }
}


// ************************************************************************* //
