/*--------------------------------*- C++ -*----------------------------------*\
  =========                 |
  \\      /  F ield         | OpenFOAM: The Open Source CFD Toolbox
   \\    /   O peration     | Website:  https://openfoam.org
    \\  /    A nd           | Version:  7
     \\/     M anipulation  |
\*---------------------------------------------------------------------------*/
FoamFile
{
    version     2.0;
    format      ascii;
    class       volScalarField;
    location    "35";
    object      rhot2;
}
// * * * * * * * * * * * * * * * * * * * * * * * * * * * * * * * * * * * * * //

dimensions      [1 -3 0 0 0 0 0];

internalField   nonuniform List<scalar> 
900
(
0.102525
0.102279
0.101775
0.100985
0.0998693
0.0983674
0.0963997
0.0938606
0.0906135
0.0864853
0.08126
0.0746771
0.0664396
0.0562478
0.0439019
0.0295909
0.0147085
0.0034076
6.96552e-05
2.6721e-11
0.000954693
0.000946871
0.000930959
0.000906436
0.000872549
0.000828373
0.000772908
0.00070527
0.000624992
0.000532514
0.000429872
0.000321552
0.000215246
0.000121743
5.26075e-05
1.43517e-05
1.66169e-06
3.23903e-08
9.16235e-12
2.16196e-20
1.02495e-05
1.0098e-05
9.79296e-06
9.33142e-06
8.71073e-06
7.93137e-06
7.00075e-06
5.93845e-06
4.7821e-06
3.59261e-06
2.45502e-06
1.46958e-06
7.27303e-07
2.71384e-07
6.54804e-08
7.80736e-09
2.79845e-10
1.14498e-12
7.58569e-17
2.29756e-24
1.05558e-07
1.03234e-07
9.8613e-08
9.17637e-08
8.28295e-08
7.20715e-08
5.99206e-08
4.70203e-08
3.42336e-08
2.25753e-08
1.30302e-08
6.26352e-09
2.32913e-09
5.98819e-10
8.92912e-11
5.8236e-12
1.04664e-13
2.43415e-16
2.30753e-20
3.16787e-26
1.07224e-09
1.04073e-09
9.78864e-10
8.89127e-10
7.75711e-10
6.44898e-10
5.05268e-10
3.67419e-10
2.42835e-10
1.41722e-10
7.0165e-11
2.78526e-11
8.18015e-12
1.5826e-12
1.70241e-13
7.94369e-15
1.12386e-16
2.96453e-19
8.58601e-23
3.1842e-27
1.13449e-11
1.0932e-11
1.0131e-11
8.99333e-12
7.59868e-12
6.05494e-12
4.4927e-12
3.0509e-12
1.8525e-12
9.74728e-13
4.26006e-13
1.46017e-13
3.62953e-14
5.88022e-15
5.37265e-16
2.28497e-17
3.55509e-19
1.55928e-21
1.66972e-24
8.07779e-28
1.32431e-13
1.26789e-13
1.15967e-13
1.00887e-13
8.29005e-14
6.37054e-14
4.51631e-14
2.9006e-14
1.64767e-14
8.02165e-15
3.21198e-15
1.00243e-15
2.27419e-16
3.42986e-17
3.07529e-18
1.43571e-19
3.03361e-21
2.61605e-23
9.8418e-26
3.35237e-28
1.80322e-15
1.71737e-15
1.55424e-15
1.33053e-15
1.06971e-15
7.99502e-16
5.47952e-16
3.38245e-16
1.83746e-16
8.52798e-17
3.25734e-17
9.77107e-18
2.17311e-18
3.34471e-19
3.29369e-20
1.91356e-21
6.14553e-23
1.08578e-24
1.2522e-26
1.85583e-28
3.01411e-17
2.85993e-17
2.56913e-17
2.1751e-17
1.72337e-17
1.26533e-17
8.49707e-18
5.13184e-18
2.72903e-18
1.24471e-18
4.71581e-19
1.4285e-19
3.30982e-20
5.58566e-21
6.53385e-22
5.0842e-23
2.59515e-24
9.1604e-26
2.76413e-27
1.2302e-28
6.46353e-19
6.12049e-19
5.47652e-19
4.61069e-19
3.6283e-19
2.64458e-19
1.76424e-19
1.06117e-19
5.64993e-20
2.60458e-20
1.01307e-20
3.22876e-21
8.16909e-22
1.58985e-22
2.3177e-23
2.49972e-24
2.03248e-25
1.35393e-26
9.12166e-28
9.17689e-29
1.84224e-20
1.74394e-20
1.55979e-20
1.31302e-20
1.03413e-20
7.55901e-21
5.07511e-21
3.09006e-21
1.68039e-21
8.01882e-22
3.29242e-22
1.13899e-22
3.25205e-23
7.5309e-24
1.40131e-24
2.11033e-25
2.67257e-26
3.12633e-27
4.04382e-28
7.41704e-29
7.16065e-22
6.78746e-22
6.08822e-22
5.15037e-22
4.08826e-22
3.02423e-22
2.06688e-22
1.29161e-22
7.29205e-23
3.67015e-23
1.62382e-23
6.22948e-24
2.04827e-24
5.73406e-25
1.37071e-25
2.85352e-26
5.42401e-27
1.02858e-27
2.22547e-28
6.33949e-29
3.85672e-23
3.66574e-23
3.30704e-23
2.82377e-23
2.27253e-23
1.71419e-23
1.20363e-23
7.8042e-24
4.63109e-24
2.49162e-24
1.20437e-24
5.19007e-25
1.98496e-25
6.74618e-26
2.05995e-26
5.80014e-27
1.57884e-27
4.46574e-28
1.43401e-28
5.63894e-29
2.89884e-24
2.76607e-24
2.51567e-24
2.17582e-24
1.78374e-24
1.38009e-24
1.00255e-24
6.79811e-25
4.2764e-25
2.48072e-25
1.32039e-25
6.42933e-26
2.86594e-26
1.17717e-26
4.52328e-27
1.67003e-27
6.168e-28
2.39934e-28
1.03639e-28
5.16309e-29
3.0402e-25
2.91494e-25
2.67738e-25
2.35185e-25
1.97086e-25
1.5707e-25
1.18614e-25
8.45467e-26
5.66665e-26
3.55999e-26
2.09252e-26
1.15132e-26
5.9538e-27
2.92021e-27
1.37995e-27
6.43e-28
3.0442e-28
1.51372e-28
8.14305e-29
4.82921e-29
4.4238e-26
4.26463e-26
3.96084e-26
3.53994e-26
3.03925e-26
2.50144e-26
1.96908e-26
1.47911e-26
1.05824e-26
7.20368e-27
4.66757e-27
2.88607e-27
1.71245e-27
9.84166e-28
5.55326e-28
3.13098e-28
1.79975e-28
1.07601e-28
6.80102e-29
4.58921e-29
8.83779e-27
8.5691e-27
8.05275e-27
7.32887e-27
6.45287e-27
5.48975e-27
4.50706e-27
3.56717e-27
2.72027e-27
1.99941e-27
1.41873e-27
9.75141e-28
6.52839e-28
4.29107e-28
2.79781e-28
1.83154e-28
1.21924e-28
8.35145e-29
5.94088e-29
4.41351e-29
2.38391e-27
2.32479e-27
2.2104e-27
2.04814e-27
1.84843e-27
1.62379e-27
1.38778e-27
1.15364e-27
9.33019e-28
7.3488e-28
5.64822e-28
4.24989e-28
3.14497e-28
2.3027e-28
1.6802e-28
1.23147e-28
9.13818e-29
6.9145e-29
5.36468e-29
4.28313e-29
8.46338e-28
8.29805e-28
7.97606e-28
7.5143e-28
6.93688e-28
6.27364e-28
5.55799e-28
4.8243e-28
4.10508e-28
3.42827e-28
2.81505e-28
2.27874e-28
1.82475e-28
1.4516e-28
1.1527e-28
9.18383e-29
7.378e-29
6.00346e-29
4.9656e-29
4.18539e-29
3.81779e-28
3.76079e-28
3.64913e-28
3.48744e-28
3.28244e-28
3.04264e-28
2.77786e-28
2.49872e-28
2.21582e-28
1.93909e-28
1.67701e-28
1.43614e-28
1.22078e-28
1.03302e-28
8.72964e-29
7.39162e-29
6.29138e-29
5.39875e-29
4.68216e-29
4.11156e-29
2.09877e-28
2.07534e-28
2.02923e-28
1.96191e-28
1.87557e-28
1.77304e-28
1.65768e-28
1.53326e-28
1.40374e-28
1.27306e-28
1.1449e-28
1.02245e-28
9.08229e-29
8.04036e-29
7.10889e-29
6.29121e-29
5.58487e-29
4.98324e-29
4.477e-29
4.0555e-29
1.34767e-28
1.33657e-28
1.31464e-28
1.28241e-28
1.2407e-28
1.19056e-28
1.13331e-28
1.07044e-28
1.00362e-28
9.34565e-29
8.64988e-29
7.965e-29
7.30522e-29
6.68225e-29
6.10489e-29
5.5789e-29
5.10719e-29
4.69019e-29
4.32638e-29
4.01277e-29
9.73259e-29
9.67376e-29
9.55719e-29
9.38505e-29
9.16064e-29
8.88842e-29
8.57398e-29
8.22397e-29
7.84591e-29
7.44802e-29
7.03884e-29
6.62688e-29
6.22022e-29
5.82612e-29
5.45078e-29
5.09908e-29
4.77457e-29
4.47942e-29
4.21462e-29
3.98013e-29
7.6657e-29
7.63172e-29
7.56421e-29
7.46416e-29
7.33302e-29
7.17283e-29
6.9862e-29
6.77629e-29
6.54683e-29
6.30199e-29
6.0463e-29
5.78448e-29
5.52123e-29
5.26107e-29
5.00815e-29
4.76606e-29
4.53777e-29
4.32558e-29
4.13107e-29
3.95516e-29
6.43234e-29
6.41136e-29
6.36964e-29
6.30762e-29
6.22601e-29
6.1258e-29
6.0083e-29
5.87513e-29
5.72825e-29
5.56991e-29
5.40265e-29
5.2292e-29
5.05239e-29
4.87507e-29
4.69998e-29
4.52967e-29
4.3664e-29
4.21209e-29
4.06826e-29
3.93605e-29
5.65172e-29
5.63812e-29
5.61102e-29
5.57066e-29
5.5174e-29
5.45176e-29
5.37442e-29
5.28628e-29
5.18841e-29
5.08212e-29
4.96888e-29
4.85034e-29
4.72826e-29
4.60447e-29
4.48081e-29
4.35905e-29
4.24085e-29
4.1277e-29
4.02087e-29
3.92143e-29
5.13529e-29
5.12613e-29
5.10787e-29
5.08063e-29
5.04461e-29
5.00009e-29
4.94747e-29
4.88724e-29
4.82006e-29
4.74668e-29
4.66802e-29
4.58511e-29
4.49907e-29
4.41111e-29
4.32247e-29
4.23438e-29
4.14806e-29
4.06461e-29
3.98505e-29
3.91025e-29
4.78211e-29
4.77577e-29
4.76312e-29
4.74423e-29
4.71921e-29
4.68823e-29
4.65152e-29
4.60939e-29
4.56223e-29
4.51052e-29
4.45484e-29
4.39584e-29
4.33428e-29
4.27097e-29
4.20674e-29
4.14248e-29
4.07905e-29
4.01728e-29
3.95794e-29
3.90172e-29
4.53454e-29
4.53006e-29
4.52111e-29
4.50775e-29
4.49003e-29
4.46806e-29
4.44198e-29
4.41199e-29
4.37835e-29
4.34135e-29
4.30138e-29
4.25888e-29
4.21435e-29
4.16835e-29
4.12147e-29
4.07432e-29
4.02752e-29
3.98169e-29
3.93741e-29
3.89522e-29
4.35781e-29
4.35459e-29
4.34817e-29
4.33858e-29
4.32585e-29
4.31005e-29
4.29129e-29
4.26967e-29
4.24538e-29
4.21862e-29
4.18965e-29
4.15877e-29
4.12631e-29
4.09268e-29
4.05828e-29
4.02355e-29
3.98895e-29
3.95492e-29
3.92189e-29
3.89027e-29
4.22997e-29
4.22764e-29
4.22298e-29
4.21602e-29
4.20679e-29
4.19532e-29
4.18169e-29
4.16597e-29
4.14829e-29
4.12879e-29
4.10765e-29
4.08507e-29
4.0613e-29
4.0366e-29
4.01128e-29
3.98565e-29
3.96004e-29
3.93477e-29
3.91016e-29
3.88652e-29
4.13663e-29
4.13493e-29
4.13153e-29
4.12644e-29
4.11969e-29
4.11131e-29
4.10135e-29
4.08986e-29
4.07692e-29
4.06264e-29
4.04714e-29
4.03057e-29
4.0131e-29
3.99493e-29
3.97626e-29
3.95733e-29
3.93837e-29
3.91962e-29
3.90131e-29
3.88369e-29
4.06804e-29
4.06679e-29
4.0643e-29
4.06057e-29
4.05561e-29
4.04947e-29
4.04215e-29
4.03372e-29
4.02422e-29
4.01373e-29
4.00234e-29
3.99016e-29
3.9773e-29
3.96391e-29
3.95015e-29
3.93616e-29
3.92214e-29
3.90824e-29
3.89466e-29
3.88155e-29
4.01744e-29
4.01652e-29
4.01469e-29
4.01194e-29
4.0083e-29
4.00378e-29
3.9984e-29
3.9922e-29
3.98521e-29
3.9775e-29
3.96912e-29
3.96015e-29
3.95069e-29
3.94082e-29
3.93067e-29
3.92036e-29
3.91e-29
3.89972e-29
3.88966e-29
3.87994e-29
3.98003e-29
3.97936e-29
3.978e-29
3.97598e-29
3.9733e-29
3.96997e-29
3.96601e-29
3.96145e-29
3.95631e-29
3.95064e-29
3.94447e-29
3.93787e-29
3.93091e-29
3.92365e-29
3.91618e-29
3.90857e-29
3.90093e-29
3.89335e-29
3.88592e-29
3.87873e-29
3.95236e-29
3.95187e-29
3.95087e-29
3.94938e-29
3.94741e-29
3.94496e-29
3.94204e-29
3.93869e-29
3.93491e-29
3.93073e-29
3.9262e-29
3.92135e-29
3.91623e-29
3.9109e-29
3.9054e-29
3.89981e-29
3.89419e-29
3.88861e-29
3.88313e-29
3.87783e-29
3.93192e-29
3.93155e-29
3.93082e-29
3.92972e-29
3.92827e-29
3.92647e-29
3.92432e-29
3.92186e-29
3.91908e-29
3.91601e-29
3.91268e-29
3.90912e-29
3.90537e-29
3.90145e-29
3.89741e-29
3.89331e-29
3.88918e-29
3.88508e-29
3.88106e-29
3.87716e-29
3.91685e-29
3.91658e-29
3.91604e-29
3.91523e-29
3.91416e-29
3.91284e-29
3.91126e-29
3.90945e-29
3.90741e-29
3.90516e-29
3.90271e-29
3.9001e-29
3.89735e-29
3.89447e-29
3.89152e-29
3.88851e-29
3.88548e-29
3.88248e-29
3.87953e-29
3.87667e-29
3.90578e-29
3.90558e-29
3.90518e-29
3.90459e-29
3.9038e-29
3.90283e-29
3.90167e-29
3.90034e-29
3.89884e-29
3.89719e-29
3.8954e-29
3.89348e-29
3.89146e-29
3.88935e-29
3.88719e-29
3.88498e-29
3.88276e-29
3.88056e-29
3.8784e-29
3.8763e-29
3.89771e-29
3.89757e-29
3.89727e-29
3.89684e-29
3.89626e-29
3.89554e-29
3.89468e-29
3.8937e-29
3.8926e-29
3.89138e-29
3.89006e-29
3.88865e-29
3.88717e-29
3.88562e-29
3.88403e-29
3.88241e-29
3.88078e-29
3.87916e-29
3.87757e-29
3.87604e-29
3.8919e-29
3.89179e-29
3.89158e-29
3.89125e-29
3.89082e-29
3.89028e-29
3.88965e-29
3.88892e-29
3.8881e-29
3.8872e-29
3.88622e-29
3.88518e-29
3.88408e-29
3.88293e-29
3.88175e-29
3.88056e-29
3.87935e-29
3.87816e-29
3.87698e-29
3.87584e-29
3.88781e-29
3.88772e-29
3.88756e-29
3.88731e-29
3.88699e-29
3.88658e-29
3.8861e-29
3.88555e-29
3.88493e-29
3.88425e-29
3.88352e-29
3.88273e-29
3.8819e-29
3.88104e-29
3.88015e-29
3.87925e-29
3.87835e-29
3.87745e-29
3.87656e-29
3.87571e-29
3.88503e-29
3.88497e-29
3.88484e-29
3.88465e-29
3.88439e-29
3.88408e-29
3.8837e-29
3.88327e-29
3.88279e-29
3.88226e-29
3.88169e-29
3.88107e-29
3.88043e-29
3.87976e-29
3.87907e-29
3.87837e-29
3.87767e-29
3.87697e-29
3.87628e-29
3.87562e-29
3.88332e-29
3.88327e-29
3.88316e-29
3.883e-29
3.88279e-29
3.88253e-29
3.88222e-29
3.88187e-29
3.88147e-29
3.88103e-29
3.88056e-29
3.88005e-29
3.87952e-29
3.87897e-29
3.8784e-29
3.87783e-29
3.87725e-29
3.87667e-29
3.87611e-29
3.87556e-29
3.88251e-29
3.88246e-29
3.88236e-29
3.88222e-29
3.88203e-29
3.88179e-29
3.88152e-29
3.8812e-29
3.88084e-29
3.88045e-29
3.88002e-29
3.87957e-29
3.87909e-29
3.87859e-29
3.87808e-29
3.87757e-29
3.87705e-29
3.87653e-29
3.87602e-29
3.87553e-29
)
;

boundaryField
{
    topWall
    {
        type            zeroGradient;
    }
    bottomWall
    {
        type            zeroGradient;
    }
    sideWallL
    {
        type            symmetry;
    }
    sideWallR
    {
        type            zeroGradient;
    }
    frontAndBack
    {
        type            empty;
    }
}


// ************************************************************************* //
