/*--------------------------------*- C++ -*----------------------------------*\
  =========                 |
  \\      /  F ield         | OpenFOAM: The Open Source CFD Toolbox
   \\    /   O peration     | Website:  https://openfoam.org
    \\  /    A nd           | Version:  7
     \\/     M anipulation  |
\*---------------------------------------------------------------------------*/
FoamFile
{
    version     2.0;
    format      ascii;
    class       volScalarField;
    location    "35";
    object      T;
}
// * * * * * * * * * * * * * * * * * * * * * * * * * * * * * * * * * * * * * //

dimensions      [0 0 0 1 0 0 0];

internalField   nonuniform List<scalar> 
900
(
592.984
592.956
592.898
592.806
592.677
592.501
592.267
591.962
591.562
591.039
590.349
589.429
588.18
586.443
583.932
580.063
573.439
560.126
527.278
429.609
547.933
547.856
547.697
547.448
547.093
546.611
545.974
545.137
544.043
542.61
540.718
538.193
534.77
530.027
523.262
513.213
497.46
471.04
423.754
338.554
512.531
512.411
512.165
511.779
511.231
510.488
509.506
508.222
506.548
504.365
501.501
497.709
492.627
485.708
476.1
462.451
442.597
413.175
369.654
308.723
481.091
480.934
480.611
480.106
479.39
478.424
477.152
475.496
473.354
470.582
466.985
462.29
456.116
447.924
436.947
422.114
401.983
374.839
339.273
295.865
452.955
452.768
452.386
451.788
450.944
449.809
448.322
446.401
443.934
440.776
436.73
431.538
424.852
416.219
405.049
390.621
372.127
348.875
320.748
289
427.927
427.72
427.296
426.634
425.703
424.457
422.834
420.752
418.104
414.753
410.519
405.178
398.446
389.975
379.36
366.167
350.011
330.722
308.608
284.774
405.809
405.589
405.14
404.442
403.464
402.161
400.475
398.329
395.627
392.245
388.034
382.81
376.356
368.427
358.766
347.14
333.409
317.629
300.193
281.931
386.377
386.152
385.695
384.986
383.995
382.683
380.997
378.868
376.213
372.929
368.894
363.968
357.994
350.811
342.266
332.256
320.764
307.932
294.114
279.908
369.398
369.176
368.724
368.024
367.051
365.77
364.134
362.084
359.552
356.456
352.7
348.182
342.794
336.435
329.026
320.535
311.005
300.592
289.586
278.413
354.638
354.424
353.988
353.315
352.384
351.163
349.614
347.689
345.333
342.481
339.063
335.007
330.241
324.708
318.374
311.244
303.386
294.941
286.138
277.281
341.87
341.667
341.255
340.622
339.749
338.611
337.175
335.404
333.254
330.678
327.624
324.043
319.892
315.14
309.78
303.837
297.38
290.532
283.467
276.407
330.875
330.687
330.305
329.721
328.917
327.874
326.567
324.965
323.037
320.746
318.058
314.94
311.367
307.327
302.828
297.9
292.61
287.056
281.374
275.723
321.45
321.278
320.931
320.399
319.671
318.731
317.559
316.132
314.426
312.417
310.079
307.395
304.351
300.945
297.191
293.123
288.798
284.295
279.717
275.183
313.406
313.251
312.939
312.463
311.813
310.977
309.94
308.685
307.195
305.452
303.442
301.153
298.58
295.728
292.613
289.267
285.737
282.088
278.397
274.753
306.57
306.433
306.156
305.735
305.162
304.427
303.521
302.429
301.142
299.646
297.932
295.996
293.837
291.463
288.89
286.147
283.272
280.317
277.34
274.409
300.785
300.665
300.423
300.055
299.555
298.917
298.132
297.193
296.09
294.818
293.369
291.743
289.943
287.977
285.86
283.618
281.281
278.891
276.491
274.133
295.911
295.807
295.596
295.278
294.846
294.298
293.625
292.824
291.888
290.814
289.598
288.242
286.749
285.128
283.394
281.567
279.671
277.74
275.807
273.911
291.82
291.73
291.55
291.277
290.908
290.44
289.869
289.192
288.404
287.503
286.49
285.365
284.133
282.803
281.387
279.902
278.368
276.81
275.255
273.731
288.401
288.325
288.171
287.939
287.627
287.231
286.75
286.181
285.522
284.773
283.933
283.005
281.994
280.907
279.755
278.552
277.313
276.058
274.809
273.587
285.555
285.491
285.362
285.166
284.903
284.571
284.169
283.694
283.147
282.527
281.835
281.074
280.247
279.363
278.429
277.457
276.459
275.451
274.449
273.47
283.197
283.142
283.034
282.871
282.651
282.375
282.041
281.648
281.196
280.686
280.118
279.497
278.825
278.108
277.353
276.57
275.768
274.96
274.159
273.376
281.249
281.204
281.114
280.978
280.796
280.568
280.292
279.968
279.598
279.18
278.718
278.213
277.668
277.089
276.482
275.853
275.211
274.565
273.924
273.3
279.648
279.611
279.536
279.424
279.274
279.087
278.86
278.596
278.293
277.954
277.578
277.169
276.73
276.265
275.777
275.274
274.761
274.246
273.736
273.238
278.336
278.306
278.245
278.153
278.031
277.877
277.693
277.477
277.232
276.957
276.654
276.325
275.972
275.599
275.209
274.807
274.399
273.989
273.584
273.189
277.267
277.242
277.192
277.118
277.018
276.893
276.744
276.57
276.371
276.15
275.906
275.642
275.36
275.062
274.752
274.432
274.108
273.783
273.462
273.15
276.398
276.378
276.338
276.278
276.197
276.096
275.976
275.836
275.676
275.499
275.304
275.093
274.868
274.631
274.385
274.132
273.875
273.618
273.365
273.118
275.696
275.68
275.647
275.599
275.534
275.453
275.356
275.244
275.117
274.975
274.82
274.652
274.474
274.286
274.091
273.891
273.689
273.487
273.287
273.093
275.13
275.117
275.091
275.052
275
274.936
274.859
274.769
274.668
274.555
274.432
274.3
274.159
274.011
273.857
273.7
273.541
273.382
273.225
273.073
274.676
274.666
274.645
274.614
274.573
274.522
274.46
274.39
274.309
274.22
274.123
274.019
273.908
273.791
273.671
273.547
273.423
273.299
273.176
273.057
274.314
274.306
274.289
274.265
274.232
274.191
274.143
274.087
274.024
273.954
273.878
273.795
273.708
273.617
273.523
273.427
273.33
273.233
273.137
273.044
274.026
274.019
274.006
273.987
273.961
273.929
273.891
273.847
273.798
273.743
273.683
273.619
273.551
273.48
273.407
273.332
273.256
273.181
273.107
273.034
273.797
273.792
273.782
273.767
273.747
273.722
273.692
273.658
273.619
273.576
273.53
273.48
273.427
273.372
273.315
273.257
273.198
273.14
273.082
273.027
273.617
273.613
273.605
273.594
273.578
273.558
273.535
273.508
273.478
273.445
273.409
273.37
273.329
273.287
273.243
273.198
273.153
273.108
273.064
273.021
273.476
273.473
273.467
273.458
273.445
273.43
273.412
273.392
273.368
273.343
273.315
273.285
273.253
273.221
273.187
273.152
273.117
273.083
273.049
273.016
273.366
273.363
273.359
273.351
273.342
273.33
273.316
273.301
273.283
273.263
273.241
273.218
273.194
273.169
273.143
273.116
273.09
273.063
273.037
273.012
273.28
273.278
273.274
273.269
273.262
273.253
273.242
273.23
273.216
273.201
273.184
273.167
273.148
273.129
273.109
273.089
273.069
273.048
273.028
273.009
273.214
273.212
273.209
273.205
273.2
273.193
273.184
273.175
273.165
273.153
273.14
273.127
273.113
273.098
273.083
273.068
273.052
273.037
273.022
273.007
273.163
273.161
273.159
273.156
273.152
273.147
273.14
273.133
273.125
273.116
273.107
273.096
273.086
273.075
273.063
273.051
273.04
273.028
273.016
273.005
273.124
273.123
273.121
273.119
273.115
273.111
273.107
273.101
273.095
273.088
273.081
273.073
273.065
273.057
273.048
273.039
273.03
273.021
273.012
273.004
273.094
273.094
273.092
273.09
273.088
273.085
273.081
273.077
273.072
273.067
273.062
273.056
273.05
273.043
273.036
273.03
273.023
273.016
273.009
273.003
273.072
273.072
273.071
273.069
273.068
273.065
273.062
273.059
273.056
273.052
273.047
273.043
273.038
273.033
273.028
273.023
273.018
273.012
273.007
273.002
273.057
273.056
273.055
273.054
273.053
273.051
273.049
273.046
273.043
273.04
273.037
273.033
273.03
273.026
273.022
273.018
273.014
273.01
273.006
273.002
273.046
273.045
273.045
273.044
273.043
273.041
273.039
273.037
273.035
273.032
273.03
273.027
273.024
273.021
273.018
273.014
273.011
273.008
273.005
273.001
273.039
273.038
273.038
273.037
273.036
273.035
273.033
273.032
273.03
273.028
273.025
273.023
273.02
273.018
273.015
273.012
273.009
273.007
273.004
273.001
273.035
273.035
273.035
273.034
273.033
273.032
273.03
273.029
273.027
273.025
273.023
273.021
273.019
273.016
273.014
273.011
273.009
273.006
273.004
273.001
)
;

boundaryField
{
    topWall
    {
        type            zeroGradient;
    }
    bottomWall
    {
        type            codedFixedValue;
        value           uniform 623;
        name            heating;
        code            #{
            const scalar t = this->db().time().value();
            const scalar Ttemp = 273 + 10*t;
            operator==(Ttemp);
        #};
    }
    sideWallL
    {
        type            symmetry;
    }
    sideWallR
    {
        type            fixedValue;
        value           uniform 273;
    }
    frontAndBack
    {
        type            empty;
    }
}


// ************************************************************************* //
