/*--------------------------------*- C++ -*----------------------------------*\
  =========                 |
  \\      /  F ield         | OpenFOAM: The Open Source CFD Toolbox
   \\    /   O peration     | Website:  https://openfoam.org
    \\  /    A nd           | Version:  7
     \\/     M anipulation  |
\*---------------------------------------------------------------------------*/
FoamFile
{
    version     2.0;
    format      ascii;
    class       volScalarField;
    location    "1";
    object      gradTx;
}
// * * * * * * * * * * * * * * * * * * * * * * * * * * * * * * * * * * * * * //

dimensions      [0 -1 0 1 0 0 0];

internalField   nonuniform List<scalar> 
900
(
1.52466e-09
-8.47033e-10
-2.30393e-08
-1.62292e-07
-1.05049e-06
-6.57907e-06
-3.99002e-05
-0.000233497
-0.00131396
-0.00709128
-0.0366332
-0.180969
-0.855212
-3.87548
-16.9323
-72.0189
-302.662
-1281.48
-5580
-25351.3
2.37169e-09
-4.40457e-09
-5.5396e-08
-3.74558e-07
-2.39761e-06
-1.48675e-05
-8.92151e-05
-0.00051559
-0.00285788
-0.0151388
-0.0763839
-0.365955
-1.65997
-7.10941
-28.6727
-108.567
-384.11
-1256.34
-3687.2
-8763.04
1.69407e-09
-4.06576e-09
-5.67512e-08
-3.85908e-07
-2.4259e-06
-1.48546e-05
-8.79305e-05
-0.000500311
-0.00272371
-0.0141264
-0.0695011
-0.322933
-1.41025
-5.75659
-21.819
-76.1195
-241.252
-679.249
-1624.11
-2954.15
1.18585e-09
-2.37169e-09
-4.06576e-08
-2.73592e-07
-1.70338e-06
-1.0284e-05
-5.99789e-05
-0.000335654
-0.00179333
-0.00910356
-0.0436901
-0.197167
-0.831601
-3.25458
-11.7131
-38.3056
-111.897
-284.153
-597.867
-945.777
-5.0822e-10
-4.57398e-09
-2.35475e-08
-1.50941e-07
-9.32583e-07
-5.55925e-06
-3.19436e-05
-0.000175818
-0.000922206
-0.00458568
-0.0214981
-0.0944465
-0.386133
-1.4569
-5.02043
-15.5852
-42.7591
-100.744
-194.548
-283.625
-5.0822e-10
-3.21873e-09
-1.25361e-08
-7.04731e-08
-4.22331e-07
-2.48621e-06
-1.4084e-05
-7.62816e-05
-0.000393111
-0.00191701
-0.00879385
-0.0377003
-0.149913
-0.547918
-1.81998
-5.41385
-14.1364
-31.4812
-57.2285
-79.2263
-5.0822e-10
-2.03288e-09
-4.74338e-09
-2.71051e-08
-1.64833e-07
-9.55792e-07
-5.32767e-06
-2.84132e-05
-0.000143996
-0.000689484
-0.00309999
-0.0129978
-0.0504189
-0.179216
-0.576864
-1.65608
-4.15516
-8.85805
-15.4045
-20.5948
-6.77626e-10
-1.86347e-09
-1.18585e-09
-8.80914e-09
-5.79371e-08
-3.22042e-07
-1.77064e-06
-9.31076e-06
-4.6442e-05
-0.000218602
-0.000964789
-0.00396403
-0.0150377
-0.0521536
-0.163367
-0.455111
-1.10501
-2.27528
-3.82579
-4.98969
6.77626e-10
-6.77626e-10
-8.47033e-10
-3.55754e-09
-1.76183e-08
-9.707e-08
-5.27363e-07
-2.73134e-06
-1.34223e-05
-6.21785e-05
-0.000269739
-0.00108787
-0.00404453
-0.013723
-0.0419734
-0.113951
-0.269159
-0.538773
-0.882347
-1.12982
3.38813e-10
3.38813e-10
-8.47033e-10
-8.47033e-10
-5.75982e-09
-2.77827e-08
-1.4281e-07
-7.2523e-07
-3.52196e-06
-1.60794e-05
-6.86432e-05
-0.000272141
-0.00099336
-0.00330464
-0.00989628
-0.0262696
-0.0606107
-0.118506
-0.190004
-0.239875
3.38813e-10
1.35525e-09
6.77626e-10
-8.47033e-10
-1.69407e-09
-7.11508e-09
-3.35425e-08
-1.76013e-07
-8.48388e-07
-3.81978e-06
-1.60655e-05
-6.26865e-05
-0.000224989
-0.0007352
-0.0021604
-0.00562217
-0.0127107
-0.0243623
-0.038384
-0.0479171
-3.38813e-10
1.52466e-09
8.47033e-10
-3.38813e-10
-8.47033e-10
-8.47033e-10
-5.92923e-09
-4.06576e-08
-1.8838e-07
-8.39579e-07
-3.4874e-06
-1.34045e-05
-4.73642e-05
-0.000152261
-0.000439833
-0.00112454
-0.00249737
-0.00470529
-0.00730524
-0.00903632
3.38813e-10
2.20229e-09
2.87991e-09
0
-1.18585e-09
3.38813e-10
0
-7.6233e-09
-4.04882e-08
-1.72795e-07
-7.05409e-07
-2.67781e-06
-9.32753e-06
-2.95398e-05
-8.40077e-05
-0.000211386
-0.000462051
-0.000857592
-0.00131481
-0.00161397
5.0822e-10
2.5411e-09
3.21873e-09
1.69407e-10
-1.69407e-09
6.77626e-10
1.86347e-09
-1.86347e-09
-9.48677e-09
-3.32037e-08
-1.32476e-07
-5.01952e-07
-1.72744e-06
-5.39729e-06
-1.51292e-05
-3.75192e-05
-8.08484e-05
-0.00014808
-0.000224555
-0.000273858
-3.38813e-10
2.20229e-09
2.5411e-09
3.38813e-10
-8.47033e-10
3.38813e-10
1.35525e-09
0
-3.04932e-09
-6.09864e-09
-2.20229e-08
-8.82608e-08
-3.01205e-07
-9.32244e-07
-2.58125e-06
-6.31395e-06
-1.34292e-05
-2.43073e-05
-3.65063e-05
-4.42725e-05
0
1.86347e-09
2.87991e-09
-1.69407e-10
-1.52466e-09
0
2.37169e-09
1.01644e-09
-3.04932e-09
-1.69407e-09
-2.03288e-09
-1.33831e-08
-4.91279e-08
-1.53482e-07
-4.18942e-07
-1.01102e-06
-2.1247e-06
-3.80453e-06
-5.66597e-06
-6.83793e-06
-1.69407e-10
1.35525e-09
1.52466e-09
-3.38813e-10
-1.18585e-09
-5.0822e-10
1.35525e-09
3.38813e-10
-1.18585e-09
3.38813e-10
8.47033e-10
-8.47033e-10
-7.45389e-09
-2.38863e-08
-6.55604e-08
-1.55515e-07
-3.20348e-07
-5.69037e-07
-8.41781e-07
-1.01237e-06
0
1.18585e-09
1.01644e-09
-1.69407e-10
0
5.0822e-10
1.35525e-09
6.77626e-10
0
8.47033e-10
1.35525e-09
0
-1.69407e-09
-5.0822e-09
-1.11808e-08
-2.28699e-08
-4.60786e-08
-8.13152e-08
-1.20279e-07
-1.43487e-07
1.69407e-10
1.18585e-09
5.0822e-10
-8.47033e-10
-5.0822e-10
1.18585e-09
1.86347e-09
3.38813e-10
-5.0822e-10
5.0822e-10
1.18585e-09
-3.38813e-10
-5.0822e-10
-8.47033e-10
-2.5411e-09
-3.55754e-09
-5.59042e-09
-1.13502e-08
-1.71101e-08
-1.93124e-08
6.77626e-10
1.01644e-09
0
-2.20229e-09
-1.18585e-09
1.52466e-09
1.86347e-09
0
-5.0822e-10
3.38813e-10
1.69407e-10
-1.69407e-10
-6.77626e-10
-5.0822e-10
3.38813e-10
0
-1.18585e-09
-3.04932e-09
-2.87991e-09
-3.38813e-10
-1.18585e-09
-5.0822e-10
-3.38813e-10
0
3.38813e-10
1.01644e-09
1.18585e-09
3.38813e-10
-1.69407e-09
0
1.69407e-10
-5.0822e-10
3.38813e-10
-3.38813e-10
2.20229e-09
0
-2.5411e-09
-8.47033e-10
-1.69407e-10
1.35525e-09
8.47033e-10
8.47033e-10
0
-3.38813e-10
5.0822e-10
0
3.38813e-10
8.47033e-10
-5.0822e-10
-8.47033e-10
-1.18585e-09
3.38813e-10
0
-3.38813e-10
2.20229e-09
1.86347e-09
-2.37169e-09
-1.35525e-09
5.0822e-10
0
-8.47033e-10
0
-3.38813e-10
3.38813e-10
8.47033e-10
-5.0822e-10
1.69407e-10
1.69407e-09
-5.0822e-10
-5.0822e-10
-6.77626e-10
3.38813e-10
3.38813e-10
-3.38813e-10
5.0822e-10
3.38813e-10
-5.0822e-10
-3.38813e-10
3.38813e-10
-3.38813e-10
-8.47033e-10
-3.38813e-10
3.38813e-10
8.47033e-10
-3.38813e-10
-8.47033e-10
1.18585e-09
5.0822e-10
6.77626e-10
-6.77626e-10
-1.01644e-09
5.0822e-10
-5.0822e-10
-6.77626e-10
1.18585e-09
-3.38813e-10
6.77626e-10
1.01644e-09
-5.0822e-10
-8.47033e-10
5.0822e-10
8.47033e-10
1.86347e-09
0
-1.01644e-09
-8.47033e-10
-5.0822e-10
0
3.38813e-10
5.0822e-10
5.0822e-10
-8.47033e-10
-1.69407e-10
5.0822e-10
-3.38813e-10
-8.47033e-10
0
2.37169e-09
0
-2.03288e-09
-1.18585e-09
0
8.47033e-10
-1.69407e-10
-6.77626e-10
0
0
3.38813e-10
-3.38813e-10
1.18585e-09
1.35525e-09
-5.0822e-10
-5.0822e-10
-3.38813e-10
5.0822e-10
3.38813e-10
5.0822e-10
0
-5.0822e-10
-8.47033e-10
3.38813e-10
-5.0822e-10
1.69407e-10
-1.69407e-10
1.69407e-10
1.52466e-09
-1.18585e-09
-3.38813e-10
8.47033e-10
1.01644e-09
-3.38813e-10
-1.18585e-09
3.38813e-10
1.69407e-10
0
-1.69407e-10
1.18585e-09
-3.38813e-10
-2.03288e-09
0
-6.77626e-10
-1.01644e-09
-6.77626e-10
6.77626e-10
1.01644e-09
6.77626e-10
-1.18585e-09
-3.38813e-10
0
3.38813e-10
0
-3.38813e-10
3.38813e-10
5.0822e-10
-1.69407e-10
1.69407e-10
3.38813e-10
-3.38813e-10
-5.0822e-10
0
-8.47033e-10
-6.77626e-10
-5.0822e-10
-3.38813e-10
8.47033e-10
3.38813e-10
0
0
-5.0822e-10
0
0
-6.77626e-10
1.52466e-09
8.47033e-10
-8.47033e-10
-6.77626e-10
3.38813e-10
5.0822e-10
-1.69407e-10
-3.38813e-10
-8.47033e-10
0
5.0822e-10
-5.0822e-10
0
1.52466e-09
-3.38813e-10
-1.52466e-09
0
3.38813e-10
-3.38813e-10
6.77626e-10
1.69407e-10
-1.69407e-10
-3.38813e-10
0
3.38813e-10
0
-3.38813e-10
-8.47033e-10
-3.38813e-10
0
-5.0822e-10
-3.38813e-10
3.38813e-10
1.35525e-09
3.38813e-10
-1.35525e-09
1.69407e-10
8.47033e-10
3.38813e-10
-3.38813e-10
0
-1.01644e-09
-6.77626e-10
-5.0822e-10
5.0822e-10
1.69407e-09
0
-5.0822e-10
3.38813e-10
1.69407e-10
3.38813e-10
-3.38813e-10
1.18585e-09
1.18585e-09
-1.52466e-09
-1.01644e-09
5.0822e-10
0
-1.18585e-09
-1.69407e-10
5.0822e-10
3.38813e-10
-3.38813e-10
-1.18585e-09
3.38813e-10
1.35525e-09
-5.0822e-10
0
5.0822e-10
1.18585e-09
0
-5.0822e-10
5.0822e-10
-3.38813e-10
-5.0822e-10
8.47033e-10
0
0
-5.0822e-10
1.69407e-10
1.18585e-09
-1.35525e-09
1.69407e-10
-5.0822e-10
-3.38813e-10
8.47033e-10
-5.0822e-10
8.47033e-10
-1.52466e-09
0
-1.69407e-10
0
8.47033e-10
-3.38813e-10
0
0
-5.0822e-10
0
0
1.69407e-10
8.47033e-10
0
3.38813e-10
-5.0822e-10
-1.18585e-09
-3.38813e-10
6.77626e-10
5.0822e-10
0
1.18585e-09
0
3.38813e-10
-3.38813e-10
-1.69407e-09
0
-5.0822e-10
-6.77626e-10
-1.69407e-10
0
5.0822e-10
8.47033e-10
8.47033e-10
-3.38813e-10
-1.35525e-09
-3.38813e-10
3.38813e-10
-5.0822e-10
5.0822e-10
-1.01644e-09
5.0822e-10
0
-5.0822e-10
1.69407e-10
-8.47033e-10
3.38813e-10
8.47033e-10
3.38813e-10
0
-3.38813e-10
0
1.18585e-09
8.47033e-10
-3.38813e-10
-1.35525e-09
-8.47033e-10
1.35525e-09
8.47033e-10
-1.69407e-09
6.77626e-10
8.47033e-10
1.01644e-09
0
-3.38813e-10
5.0822e-10
0
-8.47033e-10
1.52466e-09
1.69407e-10
-1.01644e-09
5.0822e-10
-8.47033e-10
-1.52466e-09
8.47033e-10
1.18585e-09
-5.0822e-10
-3.38813e-10
0
0
-1.35525e-09
-1.69407e-09
8.47033e-10
5.0822e-10
0
3.38813e-10
-8.47033e-10
0
1.18585e-09
1.69407e-10
0
6.77626e-10
-6.77626e-10
-1.69407e-10
8.47033e-10
1.69407e-10
3.38813e-10
3.38813e-10
-3.38813e-10
-8.47033e-10
-1.52466e-09
-8.47033e-10
0
0
3.38813e-10
3.38813e-10
1.35525e-09
0
-1.18585e-09
-1.69407e-10
1.01644e-09
8.47033e-10
3.38813e-10
-1.18585e-09
3.38813e-10
3.38813e-10
-8.47033e-10
-6.77626e-10
3.38813e-10
0
1.35525e-09
1.69407e-09
-3.38813e-10
-1.69407e-10
1.69407e-10
6.77626e-10
-3.38813e-10
-1.69407e-09
3.38813e-10
5.0822e-10
0
0
-3.38813e-10
-5.0822e-10
-3.38813e-10
3.38813e-10
-8.47033e-10
3.38813e-10
5.0822e-10
0
1.35525e-09
1.18585e-09
0
-5.0822e-10
-6.77626e-10
6.77626e-10
0
-6.77626e-10
-3.38813e-10
6.77626e-10
1.18585e-09
0
-8.47033e-10
-6.77626e-10
0
-3.38813e-10
-8.47033e-10
8.47033e-10
1.18585e-09
-8.47033e-10
-1.69407e-10
1.01644e-09
1.86347e-09
0
1.69407e-10
0
-5.0822e-10
-1.52466e-09
3.38813e-10
8.47033e-10
6.77626e-10
-6.77626e-10
-1.35525e-09
-3.38813e-10
3.38813e-10
8.47033e-10
-3.38813e-10
-1.35525e-09
5.0822e-10
1.18585e-09
-3.38813e-10
-3.38813e-10
6.77626e-10
1.69407e-10
3.38813e-10
-1.18585e-09
-1.35525e-09
1.69407e-09
5.0822e-10
-8.47033e-10
0
0
-1.69407e-10
5.0822e-10
-3.38813e-10
8.47033e-10
3.38813e-10
-8.47033e-10
0
0
5.0822e-10
3.38813e-10
0
0
-3.38813e-10
0
0
3.38813e-10
3.38813e-10
-8.47033e-10
1.69407e-10
-1.69407e-10
-6.77626e-10
-5.0822e-10
-3.38813e-10
3.38813e-10
-6.77626e-10
6.77626e-10
8.47033e-10
-3.38813e-10
1.69407e-10
3.38813e-10
0
-3.38813e-10
3.38813e-10
6.77626e-10
-3.38813e-10
-8.47033e-10
0
0
5.0822e-10
0
-5.0822e-10
-1.18585e-09
-8.47033e-10
0
8.47033e-10
1.18585e-09
-3.38813e-10
3.38813e-10
)
;

boundaryField
{
    topWall
    {
        type            calculated;
        value           nonuniform List<scalar> 
20
(
1.69407e-10
3.38813e-10
0
-3.38813e-10
3.38813e-10
6.77626e-10
-3.38813e-10
-8.47033e-10
0
0
5.0822e-10
0
-5.0822e-10
-1.18585e-09
-8.47033e-10
0
8.47033e-10
1.18585e-09
-3.38813e-10
3.38813e-10
)
;
    }
    bottomWall
    {
        type            calculated;
        value           nonuniform List<scalar> 
20
(
1.52466e-09
-8.47033e-10
-2.30393e-08
-1.62292e-07
-1.05049e-06
-6.57907e-06
-3.99002e-05
-0.000233497
-0.00131396
-0.00709128
-0.0366332
-0.180969
-0.855212
-3.87548
-16.9323
-72.0189
-302.662
-1281.48
-5580
-25351.3
)
;
    }
    sideWallL
    {
        type            symmetry;
    }
    sideWallR
    {
        type            calculated;
        value           nonuniform List<scalar> 
45
(
-41616.8
-12067.4
-3653.88
-1098.68
-317.549
-86.7302
-22.2235
-5.33244
-1.19922
-0.253337
-0.0504129
-0.00947839
-0.0016888
-0.000285978
-4.61552e-05
-7.11793e-06
-1.05274e-06
-1.47224e-07
-1.93268e-08
0
2.84217e-09
0
-1.13687e-09
-5.68434e-10
-2.84217e-09
-1.7053e-09
1.13687e-09
0
0
-5.68434e-10
0
1.13687e-09
1.7053e-09
5.68434e-10
1.13687e-09
-1.7053e-09
1.13687e-09
-1.13687e-09
0
5.68434e-10
-1.13687e-09
0
5.68434e-10
-5.68434e-10
1.13687e-09
)
;
    }
    frontAndBack
    {
        type            empty;
    }
}


// ************************************************************************* //
