/*--------------------------------*- C++ -*----------------------------------*\
  =========                 |
  \\      /  F ield         | OpenFOAM: The Open Source CFD Toolbox
   \\    /   O peration     | Website:  https://openfoam.org
    \\  /    A nd           | Version:  7
     \\/     M anipulation  |
\*---------------------------------------------------------------------------*/
FoamFile
{
    version     2.0;
    format      ascii;
    class       volScalarField;
    location    "1";
    object      gradTy;
}
// * * * * * * * * * * * * * * * * * * * * * * * * * * * * * * * * * * * * * //

dimensions      [0 -1 0 1 0 0 0];

internalField   nonuniform List<scalar> 
900
(
-26576.7
-26576.7
-26576.7
-26576.7
-26576.7
-26576.7
-26576.7
-26576.7
-26576.7
-26576.7
-26576.8
-26576.8
-26577.3
-26579.4
-26588.3
-26625
-26768.9
-27311.7
-29306.7
-36578.9
-13502.6
-13502.6
-13502.6
-13502.6
-13502.6
-13502.6
-13502.6
-13502.6
-13502.6
-13502.6
-13502.6
-13502.6
-13502.7
-13503.1
-13504.6
-13508
-13508.7
-13446.6
-12906.4
-9490.73
-6121.55
-6121.55
-6121.55
-6121.55
-6121.55
-6121.55
-6121.55
-6121.55
-6121.55
-6121.55
-6121.55
-6121.52
-6121.38
-6120.69
-6117.52
-6103.73
-6047.26
-5831.52
-5075.08
-2742.18
-2480.02
-2480.02
-2480.02
-2480.02
-2480.02
-2480.02
-2480.02
-2480.02
-2480.02
-2480.01
-2480.01
-2479.97
-2479.78
-2478.94
-2475.48
-2462.14
-2414.94
-2263.65
-1836.44
-834.084
-901.999
-901.999
-901.999
-901.999
-901.999
-901.999
-901.999
-901.999
-901.998
-901.997
-901.991
-901.962
-901.832
-901.281
-899.125
-891.388
-866.233
-793.627
-613.562
-252.989
-296.377
-296.377
-296.377
-296.377
-296.377
-296.377
-296.377
-296.377
-296.377
-296.376
-296.373
-296.358
-296.292
-296.022
-295.014
-291.579
-281.085
-252.975
-189.199
-73.8313
-88.5831
-88.5831
-88.5831
-88.5831
-88.5831
-88.5831
-88.5831
-88.5831
-88.5831
-88.5828
-88.5814
-88.575
-88.5476
-88.4401
-88.0519
-86.7835
-83.0931
-73.7521
-53.8872
-20.3494
-24.2484
-24.2484
-24.2484
-24.2484
-24.2484
-24.2484
-24.2484
-24.2484
-24.2484
-24.2483
-24.2478
-24.2455
-24.2359
-24.1991
-24.0704
-23.6642
-22.5282
-19.7782
-14.2089
-5.25606
-6.11841
-6.11841
-6.11841
-6.11841
-6.11841
-6.11841
-6.11841
-6.11841
-6.1184
-6.11837
-6.1182
-6.11747
-6.11451
-6.10343
-6.06566
-5.94996
-5.63682
-4.90556
-3.48004
-1.26978
-1.43151
-1.43151
-1.43151
-1.43151
-1.43151
-1.43151
-1.43151
-1.43151
-1.43151
-1.4315
-1.43145
-1.43125
-1.43043
-1.42743
-1.41744
-1.38761
-1.30911
-1.13117
-0.794701
-0.287203
-0.312248
-0.312248
-0.312248
-0.312248
-0.312248
-0.312248
-0.312248
-0.312247
-0.312247
-0.312244
-0.312232
-0.312179
-0.311973
-0.311233
-0.308821
-0.301777
-0.283675
-0.243663
-0.169875
-0.0609647
-0.0638071
-0.0638071
-0.0638071
-0.0638071
-0.0638071
-0.0638071
-0.0638071
-0.0638071
-0.0638069
-0.0638062
-0.0638033
-0.0637909
-0.0637433
-0.0635752
-0.0630376
-0.0614988
-0.0576268
-0.0492502
-0.0341221
-0.012181
-0.0122692
-0.0122692
-0.0122692
-0.0122692
-0.0122692
-0.0122692
-0.0122692
-0.0122692
-0.0122692
-0.012269
-0.0122684
-0.0122657
-0.0122555
-0.01222
-0.0121086
-0.0117953
-0.0110216
-0.00937879
-0.00646436
-0.0022981
-0.00222876
-0.00222876
-0.00222876
-0.00222876
-0.00222876
-0.00222876
-0.00222876
-0.00222876
-0.00222875
-0.00222872
-0.00222859
-0.00222804
-0.002226
-0.00221901
-0.00219739
-0.00213759
-0.00199232
-0.00168896
-0.00115903
-0.000410662
-0.000383853
-0.000383854
-0.000383854
-0.000383854
-0.000383854
-0.000383854
-0.000383855
-0.000383854
-0.000383852
-0.000383847
-0.000383821
-0.000383716
-0.000383332
-0.000382038
-0.000378089
-0.000367328
-0.00034158
-0.000288604
-0.000197305
-6.97154e-05
-6.28815e-05
-6.28817e-05
-6.28824e-05
-6.2883e-05
-6.2883e-05
-6.2883e-05
-6.28836e-05
-6.2883e-05
-6.28834e-05
-6.28814e-05
-6.28771e-05
-6.28583e-05
-6.27897e-05
-6.25644e-05
-6.18815e-05
-6.00487e-05
-5.57232e-05
-4.69399e-05
-3.19843e-05
-1.12754e-05
-9.82711e-06
-9.82711e-06
-9.82795e-06
-9.8288e-06
-9.82778e-06
-9.82762e-06
-9.82728e-06
-9.82812e-06
-9.82762e-06
-9.82541e-06
-9.8249e-06
-9.82186e-06
-9.81186e-06
-9.77459e-06
-9.66312e-06
-9.367e-06
-8.67497e-06
-7.28821e-06
-4.95192e-06
-1.74252e-06
-1.46943e-06
-1.46876e-06
-1.46943e-06
-1.46977e-06
-1.46994e-06
-1.46909e-06
-1.46825e-06
-1.46892e-06
-1.46825e-06
-1.46825e-06
-1.46791e-06
-1.46774e-06
-1.4674e-06
-1.46079e-06
-1.44436e-06
-1.39811e-06
-1.29223e-06
-1.08352e-06
-7.34716e-07
-2.58684e-07
-2.08878e-07
-2.0837e-07
-2.09387e-07
-2.09725e-07
-2.11081e-07
-2.10742e-07
-2.10742e-07
-2.10234e-07
-2.10911e-07
-2.10572e-07
-2.11419e-07
-2.12097e-07
-2.11758e-07
-2.10911e-07
-2.07523e-07
-1.98883e-07
-1.84484e-07
-1.53991e-07
-1.06387e-07
-3.65918e-08
-2.76133e-08
-2.86297e-08
-2.93073e-08
-2.94767e-08
-2.89685e-08
-2.82909e-08
-2.86297e-08
-2.89685e-08
-2.89685e-08
-3.01544e-08
-2.96462e-08
-3.10014e-08
-2.98156e-08
-3.04932e-08
-2.86297e-08
-2.59192e-08
-2.5411e-08
-2.25311e-08
-1.50772e-08
-5.42101e-09
-3.89635e-09
-4.40457e-09
-4.23516e-09
-3.72694e-09
-2.71051e-09
-2.03288e-09
-3.72694e-09
-3.72694e-09
-3.04932e-09
-3.38813e-09
-4.57398e-09
-4.40457e-09
-3.89635e-09
-3.89635e-09
-4.06576e-09
-1.86347e-09
-2.5411e-09
-3.38813e-09
-1.69407e-10
0
-6.77626e-10
0
0
-3.38813e-10
6.77626e-10
0
-1.35525e-09
-6.77626e-10
0
5.0822e-10
-8.47033e-10
-3.38813e-10
0
0
-1.69407e-10
-1.52466e-09
3.38813e-10
6.77626e-10
1.69407e-10
8.47033e-10
6.77626e-10
-8.47033e-10
-6.77626e-10
-3.38813e-10
0
-1.18585e-09
-6.77626e-10
-5.0822e-10
-6.77626e-10
3.38813e-10
0
5.0822e-10
0
0
1.69407e-10
-1.69407e-09
-1.69407e-09
1.01644e-09
8.47033e-10
1.69407e-10
-6.77626e-10
8.47033e-10
6.77626e-10
2.37169e-09
1.01644e-09
6.77626e-10
8.47033e-10
-5.0822e-10
-8.47033e-10
3.38813e-10
3.38813e-10
8.47033e-10
-3.38813e-10
1.69407e-10
3.38813e-10
-3.38813e-10
-8.47033e-10
6.77626e-10
1.52466e-09
3.38813e-10
0
-5.0822e-10
1.69407e-10
1.69407e-10
-8.47033e-10
1.69407e-10
-1.69407e-10
-6.77626e-10
-8.47033e-10
-1.69407e-09
1.35525e-09
8.47033e-10
0
6.77626e-10
5.0822e-10
3.38813e-10
5.0822e-10
1.69407e-10
-3.38813e-10
3.38813e-10
1.01644e-09
5.0822e-10
-5.0822e-10
-8.47033e-10
-1.01644e-09
-1.69407e-10
1.01644e-09
-1.69407e-10
1.18585e-09
5.0822e-10
1.18585e-09
-5.0822e-10
5.0822e-10
1.69407e-10
3.38813e-10
3.38813e-10
1.18585e-09
1.52466e-09
-1.18585e-09
-8.47033e-10
5.0822e-10
1.52466e-09
-3.38813e-10
-5.0822e-10
8.47033e-10
1.01644e-09
8.47033e-10
-3.38813e-10
3.38813e-10
3.38813e-10
-3.38813e-10
-5.0822e-10
-1.69407e-10
3.38813e-10
3.38813e-10
-6.77626e-10
0
-3.38813e-10
-1.69407e-10
-6.77626e-10
3.38813e-10
-8.47033e-10
0
-1.35525e-09
-3.38813e-10
-1.69407e-10
-8.47033e-10
3.38813e-10
-8.47033e-10
-8.47033e-10
-1.86347e-09
-8.47033e-10
-8.47033e-10
3.38813e-10
-6.77626e-10
-1.69407e-10
-5.0822e-10
-1.35525e-09
0
3.38813e-10
1.69407e-10
-3.38813e-10
1.18585e-09
1.01644e-09
3.38813e-10
-3.38813e-10
1.18585e-09
8.47033e-10
0
5.0822e-10
0
1.69407e-10
1.01644e-09
1.69407e-10
3.38813e-10
0
1.69407e-10
-3.38813e-10
8.47033e-10
3.38813e-10
-8.47033e-10
0
0
0
-3.38813e-10
0
5.0822e-10
0
-6.77626e-10
5.0822e-10
5.0822e-10
6.77626e-10
8.47033e-10
-8.47033e-10
-5.0822e-10
-8.47033e-10
-8.47033e-10
-5.0822e-10
0
-3.38813e-10
-5.0822e-10
3.38813e-10
-5.0822e-10
0
-3.38813e-10
8.47033e-10
-1.69407e-10
-3.38813e-10
3.38813e-10
0
0
-6.77626e-10
-8.47033e-10
-5.0822e-10
-3.38813e-10
-3.38813e-10
-1.35525e-09
-3.38813e-10
-3.38813e-10
-3.38813e-10
-8.47033e-10
0
5.0822e-10
3.38813e-10
6.77626e-10
3.38813e-10
-1.18585e-09
-5.0822e-10
8.47033e-10
-1.69407e-10
-5.0822e-10
-8.47033e-10
0
3.38813e-10
-5.0822e-10
1.18585e-09
-3.38813e-10
0
-8.47033e-10
-5.0822e-10
5.0822e-10
-8.47033e-10
0
-1.18585e-09
0
-1.69407e-09
-1.18585e-09
0
-3.38813e-10
-8.47033e-10
-3.38813e-10
0
3.38813e-10
5.0822e-10
0
5.0822e-10
6.77626e-10
-3.38813e-10
-8.47033e-10
3.38813e-10
1.69407e-09
8.47033e-10
1.69407e-09
8.47033e-10
2.5411e-09
0
8.47033e-10
8.47033e-10
-1.69407e-10
0
-5.0822e-10
8.47033e-10
-5.0822e-10
3.38813e-10
1.69407e-09
5.0822e-10
5.0822e-10
0
3.38813e-10
1.69407e-10
-5.0822e-10
0
3.38813e-10
0
0
-3.38813e-10
-5.0822e-10
0
1.69407e-10
5.0822e-10
0
0
0
5.0822e-10
8.47033e-10
-1.69407e-10
3.38813e-10
0
1.69407e-09
3.38813e-10
-1.52466e-09
-1.18585e-09
-1.69407e-09
-1.69407e-10
-2.37169e-09
-3.38813e-10
0
-3.38813e-10
-1.69407e-10
1.35525e-09
1.01644e-09
6.77626e-10
5.0822e-10
-1.18585e-09
-2.03288e-09
0
1.69407e-10
0
0
0
0
-5.0822e-10
-2.03288e-09
1.69407e-10
-8.47033e-10
0
3.38813e-10
-1.18585e-09
-6.77626e-10
-1.69407e-10
-5.0822e-10
1.69407e-10
-3.38813e-10
-1.01644e-09
-8.47033e-10
-3.38813e-10
6.77626e-10
1.18585e-09
-6.77626e-10
0
1.52466e-09
-3.38813e-10
-3.38813e-10
-8.47033e-10
-5.0822e-10
-5.0822e-10
-3.38813e-10
6.77626e-10
3.38813e-10
-1.69407e-09
-5.0822e-10
0
6.77626e-10
8.47033e-10
1.18585e-09
3.38813e-10
5.0822e-10
-5.0822e-10
0
3.38813e-10
-8.47033e-10
1.69407e-09
2.03288e-09
8.47033e-10
1.18585e-09
1.35525e-09
1.35525e-09
1.69407e-09
3.38813e-10
5.0822e-10
8.47033e-10
6.77626e-10
1.69407e-10
1.69407e-10
0
-6.77626e-10
0
-1.52466e-09
0
-3.38813e-10
-1.52466e-09
1.52466e-09
8.47033e-10
1.18585e-09
5.0822e-10
6.77626e-10
3.38813e-10
-8.47033e-10
0
0
5.0822e-10
0
-1.69407e-10
-5.0822e-10
0
-1.01644e-09
-8.47033e-10
-5.0822e-10
3.38813e-10
3.38813e-10
0
-1.86347e-09
-3.38813e-10
0
0
0
-5.0822e-10
0
-1.01644e-09
3.38813e-10
-3.38813e-10
5.0822e-10
-8.47033e-10
-8.47033e-10
-8.47033e-10
0
0
3.38813e-10
-1.35525e-09
0
8.47033e-10
-5.0822e-10
-5.0822e-10
0
0
8.47033e-10
-1.52466e-09
-6.77626e-10
1.01644e-09
1.69407e-10
-5.0822e-10
-5.0822e-10
-8.47033e-10
0
0
-3.38813e-10
1.18585e-09
8.47033e-10
-6.77626e-10
-3.38813e-10
1.18585e-09
1.69407e-09
0
3.38813e-10
3.38813e-10
-8.47033e-10
0
0
1.35525e-09
3.38813e-10
-3.38813e-10
-3.38813e-10
0
8.47033e-10
-3.38813e-10
3.38813e-10
-6.77626e-10
-3.38813e-10
1.52466e-09
0
-1.69407e-10
0
5.0822e-10
-6.77626e-10
0
-6.77626e-10
1.69407e-09
3.38813e-10
-5.0822e-10
-3.38813e-10
3.38813e-10
3.38813e-10
8.47033e-10
0
-8.47033e-10
-6.77626e-10
-1.86347e-09
-3.38813e-10
-3.38813e-10
0
-3.38813e-10
-1.69407e-10
-1.69407e-10
-1.69407e-10
-6.77626e-10
3.38813e-10
3.38813e-10
0
-8.47033e-10
-5.0822e-10
0
-3.38813e-10
1.69407e-10
-3.38813e-10
-3.38813e-10
-8.47033e-10
-6.77626e-10
8.47033e-10
0
-5.0822e-10
)
;

boundaryField
{
    topWall
    {
        type            calculated;
        value           uniform 0;
    }
    bottomWall
    {
        type            calculated;
        value           nonuniform List<scalar> 
20
(
-34781.2
-34781.2
-34781.2
-34781.2
-34781.2
-34781.2
-34781.2
-34781.2
-34781.2
-34781.2
-34781.3
-34781.4
-34782
-34784.8
-34797.5
-34852.5
-35085.6
-36063.2
-40211.5
-58383.2
)
;
    }
    sideWallL
    {
        type            symmetry;
    }
    sideWallR
    {
        type            calculated;
        value           nonuniform List<scalar> 
45
(
-36578.9
-9490.73
-2742.18
-834.084
-252.989
-73.8313
-20.3494
-5.25606
-1.26978
-0.287203
-0.0609647
-0.012181
-0.0022981
-0.000410662
-6.97154e-05
-1.12754e-05
-1.74252e-06
-2.58684e-07
-3.65918e-08
-5.42101e-09
0
8.47033e-10
1.69407e-10
3.38813e-10
3.38813e-10
-8.47033e-10
-6.77626e-10
3.38813e-10
3.38813e-10
-3.38813e-10
-3.38813e-10
-5.0822e-10
3.38813e-10
1.69407e-10
3.38813e-10
0
0
3.38813e-10
-3.38813e-10
3.38813e-10
0
-3.38813e-10
0
0
-5.0822e-10
)
;
    }
    frontAndBack
    {
        type            empty;
    }
}


// ************************************************************************* //
