/*--------------------------------*- C++ -*----------------------------------*\
  =========                 |
  \\      /  F ield         | OpenFOAM: The Open Source CFD Toolbox
   \\    /   O peration     | Website:  https://openfoam.org
    \\  /    A nd           | Version:  7
     \\/     M anipulation  |
\*---------------------------------------------------------------------------*/
FoamFile
{
    version     2.0;
    format      ascii;
    class       volScalarField;
    location    "23";
    object      gradTx;
}
// * * * * * * * * * * * * * * * * * * * * * * * * * * * * * * * * * * * * * //

dimensions      [0 -1 0 1 0 0 0];

internalField   nonuniform List<scalar> 
900
(
-26.6238
-81.9996
-143.975
-217.702
-309.583
-428.065
-584.801
-796.487
-1087.89
-1497.06
-2084.96
-2954.02
-4287.45
-6440.24
-10176.9
-17378.5
-33438.4
-76281.8
-212181
-686809
-76.5521
-235.705
-413.6
-624.811
-887.365
-1224.88
-1669.67
-2267.6
-3085.77
-4225.64
-5845.94
-8204.7
-11740.6
-17237.7
-26175.9
-41495.6
-69235.9
-121523
-218271
-361629
-120.712
-371.464
-651.084
-981.866
-1391.13
-1914.23
-2598.85
-3511.41
-4746.96
-6445.05
-8815.83
-12183.8
-17062.9
-24284.4
-35209.4
-52039.2
-78095
-117301
-170061
-218709
-157.157
-483.236
-845.64
-1272.15
-1796.38
-2461.09
-3322.74
-4458.06
-5973.51
-8019.47
-10811.4
-14661.5
-20023.5
-27551.4
-38156.2
-52995
-73195.6
-98836.1
-126377
-144545
-184.66
-567.246
-990.688
-1485.87
-2089.53
-2847.46
-3818.59
-5080.54
-6737.08
-8928.17
-11843
-15735.9
-20941.7
-27881.4
-37032.4
-48805.6
-63221.8
-79243.2
-93758.2
-100995
-202.779
-622.2
-1084.19
-1620.51
-2268.21
-3072.35
-4089.28
-5390.57
-7067.91
-9238.58
-12051
-15687.9
-20363
-26300.5
-33679.2
-42510.7
-52419.9
-62324.9
-70160.1
-73092.6
-211.81
-649.106
-1128.28
-1680.08
-2339.71
-3148.79
-4157.67
-5427.88
-7034.47
-9067.95
-11634.3
-14851.1
-18835.5
-23677.2
-29387.2
-35812.8
-42518.1
-48665.4
-52998.3
-54114.3
-212.646
-650.823
-1128.32
-1673.57
-2318.39
-3099.36
-4059.14
-5247.65
-6722.65
-8549.17
-10796.6
-13532
-16806.1
-20630.1
-24938
-29537
-34053.5
-37903.9
-40345.2
-40664.2
-206.593
-631.456
-1091.84
-1613.02
-2222.65
-2951.54
-3834.3
-4909.55
-6219.37
-7807.45
-9715.17
-11974.4
-14595.9
-17551.2
-20750.3
-24014.9
-27059.6
-29496.2
-30886.6
-30856.5
-195.166
-595.74
-1027.36
-1511.76
-2072.18
-2733.69
-3523.35
-4469.81
-5602.2
-6947.89
-8528.57
-10354.1
-12413.6
-14663.9
-17016.3
-19325.2
-21384.4
-22940.7
-23733.6
-23560.8
-179.922
-548.494
-943.431
-1382.91
-1885.88
-2472.18
-3162.25
-3976.59
-4934.37
-6051.3
-7336.28
-8786.65
-10382.1
-12077.7
-13797
-15428.1
-16826.4
-17827.9
-18275.7
-18057.4
-162.318
-494.203
-847.923
-1238.29
-1680.41
-2189.53
-2780.71
-3468.06
-4263.53
-5175
-6203.71
-7340.9
-8563.85
-9831.94
-11083.6
-12236.1
-13189.5
-13837.4
-14084
-13865.5
-143.62
-436.749
-747.559
-1087.86
-1469.42
-1903.71
-2401.53
-2972.27
-3622.84
-4356.22
-5169.52
-6051.76
-6981.45
-7924.58
-8833.61
-9648.49
-10300.8
-10721.1
-10850.5
-10651.7
-124.861
-379.268
-647.707
-939.412
-1263.37
-1628.04
-2040.98
-2508.19
-3033.28
-3616.34
-4252.64
-4931.16
-5633.25
-6331.69
-6990.7
-7567.35
-8014.84
-8287.86
-8349.38
-8177.64
-106.819
-324.12
-552.354
-798.614
-1069.64
-1371.57
-1709.55
-2087.26
-2506.22
-2965.01
-3458.4
-3976.42
-4503.7
-5019.12
-5496.23
-5904.56
-6212.19
-6389.29
-6412.44
-6268.72
-90.041
-272.937
-464.212
-669.224
-892.954
-1139.76
-1413.09
-1715.05
-2045.93
-2403.67
-2783.25
-3176.23
-3570.34
-3949.54
-4294.52
-4583.78
-4795.52
-4910.02
-4912.32
-4794.7
-74.862
-226.715
-384.891
-553.38
-735.805
-935.219
-1153.85
-1392.82
-1651.75
-1928.42
-2218.41
-2514.83
-2808.13
-3086.34
-3335.45
-3540.37
-3686.19
-3759.8
-3751.6
-3656.93
-61.4481
-185.932
-315.121
-451.943
-598.997
-758.387
-931.519
-1118.88
-1319.8
-1532.19
-1752.32
-1974.72
-2192.13
-2395.68
-2575.3
-2720.42
-2820.84
-2867.8
-2855.08
-2779.9
-49.8332
-150.669
-254.957
-364.822
-482.103
-608.223
-744.04
-889.68
-1044.37
-1206.27
-1372.37
-1538.42
-1698.94
-1847.46
-1976.76
-2079.46
-2148.56
-2178.2
-2164.34
-2105.31
-39.956
-120.718
-203.983
-291.271
-383.867
-482.718
-588.324
-700.611
-818.828
-941.438
-1066.06
-1189.43
-1307.5
-1415.55
-1508.46
-1581.06
-1628.55
-1647
-1633.78
-1587.88
-31.6918
-95.6853
-161.473
-230.127
-302.536
-379.318
-460.743
-546.647
-636.355
-728.624
-821.601
-912.84
-999.351
-1077.73
-1144.34
-1195.58
-1228.17
-1239.45
-1227.7
-1192.34
-24.8786
-75.0688
-126.529
-180.01
-236.115
-295.242
-357.518
-422.748
-490.36
-559.37
-628.365
-695.522
-758.66
-815.334
-862.978
-899.082
-921.393
-928.126
-918.152
-891.13
-19.3376
-58.3169
-98.1857
-139.462
-182.553
-227.705
-274.965
-324.14
-374.76
-426.064
-476.987
-526.186
-572.08
-612.924
-646.91
-672.293
-687.531
-691.421
-683.219
-662.735
-14.888
-44.8752
-75.4787
-107.052
-139.865
-174.068
-209.662
-246.471
-284.124
-322.037
-359.421
-395.292
-428.513
-457.844
-482.016
-499.819
-510.198
-512.339
-505.757
-490.346
-11.357
-34.2162
-57.4978
-81.4407
-106.221
-131.925
-158.534
-185.897
-213.724
-241.576
-268.872
-294.9
-318.844
-339.828
-356.965
-369.419
-376.465
-377.557
-372.376
-360.868
-8.58627
-25.8575
-43.4151
-61.4187
-79.9808
-99.1506
-118.897
-139.099
-159.533
-179.874
-199.696
-218.487
-235.669
-250.622
-262.73
-271.415
-276.183
-276.665
-272.653
-264.121
-6.43514
-19.3718
-32.5006
-45.9268
-59.7213
-73.9093
-88.4587
-103.272
-118.182
-132.949
-147.265
-160.763
-173.035
-183.647
-192.171
-198.208
-201.422
-201.566
-198.502
-192.222
-4.78204
-14.3903
-24.1261
-34.0579
-44.2296
-54.6521
-65.296
-76.0854
-86.8955
-97.5518
-107.833
-117.48
-126.203
-133.702
-139.679
-143.861
-146.02
-145.988
-143.678
-139.088
-3.52409
-10.6014
-17.7624
-25.051
-32.4938
-40.0938
-47.8256
-55.6314
-63.4192
-71.0631
-78.4055
-85.263
-91.4338
-96.7086
-100.883
-103.769
-105.213
-105.102
-103.38
-100.048
-2.57588
-7.74659
-12.9716
-18.2788
-23.6835
-29.1849
-34.762
-40.3714
-45.9462
-51.396
-56.6096
-61.4582
-65.8013
-69.4943
-72.3967
-74.3811
-75.3427
-75.2069
-73.9364
-71.5347
-1.86769
-5.61528
-9.39769
-13.2322
-17.1276
-21.081
-25.0758
-29.0799
-33.045
-36.9069
-40.5874
-43.9967
-47.0376
-49.6107
-51.6198
-52.9785
-53.6161
-53.4829
-52.5548
-50.8356
-1.3435
-4.03826
-6.75507
-9.5045
-12.2912
-15.1117
-17.9533
-20.7923
-23.5944
-26.3142
-28.8971
-31.281
-33.3989
-35.1826
-36.5669
-37.4932
-37.914
-37.7964
-37.1247
-35.9026
-0.958887
-2.88153
-4.81794
-6.77445
-8.75328
-10.7512
-12.7584
-14.7579
-16.7253
-18.6289
-20.4308
-22.0881
-23.5551
-24.7854
-25.7346
-26.3633
-26.6397
-26.542
-26.0603
-25.1975
-0.679102
-2.04033
-3.41001
-4.79186
-6.18676
-7.59188
-8.99991
-10.3987
-11.7711
-13.0951
-14.3446
-15.4902
-16.5007
-17.3447
-17.9923
-18.417
-18.5977
-18.52
-18.1775
-17.5725
-0.477291
-1.43371
-2.39526
-3.36401
-4.34016
-5.32136
-6.30228
-7.27429
-8.22541
-9.1405
-10.0016
-10.7889
-11.481
-12.0569
-12.4965
-12.7821
-12.8996
-12.8396
-12.5981
-12.1769
-0.332937
-0.999915
-1.66993
-2.34412
-3.02233
-3.7027
-4.38138
-5.05232
-5.70722
-6.33571
-6.9256
-7.46336
-7.93476
-8.32557
-8.62239
-8.81349
-8.88954
-8.84438
-8.67545
-8.38414
-0.230542
-0.692275
-1.15577
-1.62161
-2.0895
-2.55803
-3.02444
-3.48451
-3.93256
-4.36153
-4.76315
-5.12835
-5.44757
-5.71133
-5.91071
-6.03794
-6.08691
-6.05358
-5.93634
-5.73622
-0.158524
-0.475944
-0.794359
-1.11403
-1.43466
-1.75518
-2.07364
-2.38713
-2.69177
-2.98279
-3.25465
-3.50124
-3.71621
-3.89327
-4.02651
-4.11082
-4.14219
-4.11799
-4.03723
-3.90065
-0.108321
-0.325171
-0.542563
-0.760592
-0.978979
-1.19694
-1.41312
-1.62552
-1.83151
-2.02788
-2.21092
-2.37657
-2.52062
-2.6389
-2.72754
-2.78316
-2.80315
-2.78583
-2.73056
-2.63788
-0.073677
-0.221142
-0.368887
-0.516923
-0.665016
-0.812599
-0.958728
-1.10204
-1.24077
-1.37275
-1.49552
-1.60639
-1.70257
-1.78131
-1.84008
-1.87666
-1.88936
-1.87708
-1.83944
-1.77681
-0.0500751
-0.150281
-0.25062
-0.351065
-0.451426
-0.551299
-0.650028
-0.746686
-0.840078
-0.928763
-1.01109
-1.08529
-1.14951
-1.20193
-1.2409
-1.26497
-1.27302
-1.26436
-1.23876
-1.19646
-0.0343078
-0.102949
-0.171642
-0.240348
-0.308915
-0.377054
-0.444305
-0.510035
-0.57343
-0.633517
-0.689193
-0.739264
-0.782501
-0.817703
-0.843761
-0.859727
-0.864872
-0.858738
-0.841178
-0.812376
-0.02415
-0.072459
-0.120779
-0.169066
-0.2172
-0.264969
-0.312043
-0.357975
-0.402199
-0.444039
-0.482734
-0.517464
-0.547386
-0.57168
-0.589593
-0.60048
-0.603849
-0.599395
-0.587026
-0.566872
-0.0181209
-0.0543636
-0.090597
-0.126777
-0.162807
-0.198518
-0.233662
-0.267902
-0.300817
-0.331906
-0.360609
-0.386323
-0.408432
-0.426338
-0.439492
-0.447427
-0.449787
-0.446356
-0.437069
-0.422028
-0.0153192
-0.0459551
-0.0765737
-0.107132
-0.137543
-0.167662
-0.197275
-0.226099
-0.253778
-0.279895
-0.30398
-0.325531
-0.344036
-0.358999
-0.369963
-0.376544
-0.37845
-0.3755
-0.367646
-0.354975
)
;

boundaryField
{
    topWall
    {
        type            calculated;
        value           nonuniform List<scalar> 
20
(
-0.0153192
-0.0459551
-0.0765737
-0.107132
-0.137543
-0.167662
-0.197275
-0.226099
-0.253778
-0.279895
-0.30398
-0.325531
-0.344036
-0.358999
-0.369963
-0.376544
-0.37845
-0.3755
-0.367646
-0.354975
)
;
    }
    bottomWall
    {
        type            calculated;
        value           nonuniform List<scalar> 
20
(
-26.6238
-81.9996
-143.975
-217.702
-309.583
-428.065
-584.801
-796.487
-1087.89
-1497.06
-2084.96
-2954.02
-4287.45
-6440.24
-10176.9
-17378.5
-33438.4
-76281.8
-212181
-686809
)
;
    }
    sideWallL
    {
        type            symmetry;
    }
    sideWallR
    {
        type            calculated;
        value           nonuniform List<scalar> 
45
(
-1.05713e+06
-442532
-237976
-149249
-101905
-72950.7
-53698.4
-40214.5
-30448.3
-23213.8
-17771.7
-13634.6
-10467.4
-8031.9
-6154.31
-4705.46
-3587.76
-2726.59
-2064.45
-1556.75
-1168.75
-873.368
-649.435
-480.446
-353.543
-258.734
-188.285
-136.228
-97.9841
-70.0542
-49.7806
-35.1556
-24.672
-17.2053
-11.922
-8.20831
-5.61574
-3.8186
-2.58232
-1.73935
-1.1712
-0.795208
-0.55488
-0.413092
-0.347455
)
;
    }
    frontAndBack
    {
        type            empty;
    }
}


// ************************************************************************* //
