/*--------------------------------*- C++ -*----------------------------------*\
  =========                 |
  \\      /  F ield         | OpenFOAM: The Open Source CFD Toolbox
   \\    /   O peration     | Website:  https://openfoam.org
    \\  /    A nd           | Version:  7
     \\/     M anipulation  |
\*---------------------------------------------------------------------------*/
FoamFile
{
    version     2.0;
    format      ascii;
    class       volScalarField;
    location    "23";
    object      gradTy;
}
// * * * * * * * * * * * * * * * * * * * * * * * * * * * * * * * * * * * * * //

dimensions      [0 -1 0 1 0 0 0];

internalField   nonuniform List<scalar> 
900
(
-173361
-173465
-173679
-174022
-174522
-175219
-176175
-177474
-179239
-181647
-184961
-189578
-196120
-205606
-219798
-241959
-278672
-344633
-476477
-775085
-150356
-150450
-150645
-150957
-151409
-152038
-152895
-154052
-155610
-157711
-160558
-164442
-169788
-177218
-187632
-202250
-222293
-246907
-263312
-204787
-130064
-130145
-130312
-130577
-130959
-131486
-132195
-133139
-134386
-136027
-138180
-140992
-144637
-149275
-154950
-161256
-166450
-165215
-143763
-73320.9
-112154
-112217
-112349
-112557
-112853
-113255
-113787
-114475
-115356
-116465
-117839
-119493
-121391
-123371
-124988
-125194
-121754
-110321
-83696.2
-34017.9
-96348.1
-96393.7
-96487.1
-96632.3
-96835.4
-97104.1
-97446.7
-97870.6
-98379.2
-98965
-99598.3
-100205
-100625
-100544
-99373.7
-96067
-88889.5
-75291.3
-52378.3
-19074.5
-82423.9
-82451
-82505.7
-82588.6
-82699.9
-82838.8
-83001.3
-83177.9
-83348.6
-83475.3
-83488.4
-83266.5
-82603.6
-81160.4
-78399.4
-73515.2
-65406.6
-52811.5
-34828.8
-12051.6
-70189
-70198.9
-70217.6
-70243
-70270.7
-70293.2
-70297.7
-70263
-70154.8
-69917.8
-69465.3
-68663.4
-67309.5
-65106.6
-61639
-56365.4
-48665.3
-37999
-24244.4
-8184.06
-59475.7
-59470.4
-59458
-59434
-59390.9
-59316.9
-59193.7
-58993.6
-58675.4
-58178.5
-57414.9
-56259.3
-54538.2
-52019.6
-48412.2
-43382.7
-36614.4
-27924.2
-17445.2
-5812.52
-50134.1
-50116.6
-50079
-50015.6
-49917.2
-49769.4
-49551.5
-49233.6
-48773.7
-48113.2
-47172.4
-45845.1
-43994.5
-41452.5
-38028.3
-33530.9
-27816.4
-20861.7
-12853.2
-4250.17
-42028
-42001.3
-41945
-41852.9
-41714.9
-41516.2
-41235.6
-40844.1
-40302.6
-39559.1
-38546.5
-37180.2
-35358.7
-32966.5
-29885.2
-26013.2
-21298.3
-15780
-9630
-3169.15
-35031.9
-34999
-34930.3
-34819.6
-34656.9
-34427.8
-34112.7
-33685.2
-33110.9
-32346.5
-31338
-30021.6
-28324.9
-26171.9
-23492.9
-20239.3
-16403.9
-12044.4
-7300.56
-2394.79
-29028.7
-28992.4
-28917
-28796.5
-28621.9
-28380.1
-28053.4
-27619.3
-27049.1
-26307.8
-25354
-24141.1
-22619.2
-20740.4
-18466
-15777
-12686.4
-9251.31
-5579.61
-1826.06
-23909.3
-23871.8
-23794.3
-23671.6
-23495.5
-23254.6
-22934
-22514.8
-21974.1
-21284.6
-20415.4
-19333.5
-18005.7
-16402.9
-14505.4
-12310
-9836.65
-7135.29
-4287.16
-1400.68
-19571.5
-19534.7
-19458.9
-19339.5
-19169.6
-18939.7
-18637.5
-18247.7
-17752.5
-17131.1
-16361.3
-15420
-14285.9
-12942.2
-11380.5
-9604.86
-7636.53
-5516.29
-3304.69
-1078.28
-15920.4
-15885.6
-15814.1
-15702.1
-15543.9
-15331.7
-15055.6
-14703.8
-14262.5
-13716.5
-13049.8
-12247.1
-11294.9
-10184.2
-8912.74
-7487.99
-5929.17
-4268.67
-2551.33
-831.608
-12868.2
-12836.3
-12770.8
-12668.8
-12525.6
-12335
-12089.2
-11779.3
-11394.8
-10924.8
-10358.2
-9684.83
-8896.62
-7989.26
-6963.83
-5828.48
-4599.64
-3302.48
-1970.15
-641.638
-10334.3
-10305.7
-10247.3
-10156.7
-10030
-9862.7
-9648.67
-9381.12
-9052.51
-8654.99
-8181.02
-7624.06
-6979.52
-6245.86
-5425.66
-4526.64
-3562.3
-2551.96
-1520.08
-494.719
-8245.48
-8220.45
-8169.43
-8090.52
-7980.88
-7836.82
-7653.88
-7427
-7150.74
-6819.62
-6428.59
-5973.58
-5452.19
-4864.4
-4213.31
-3505.71
-2752.4
-1968.09
-1170.8
-380.826
-6535.71
-6514.22
-6470.5
-6403.08
-6309.83
-6187.95
-6034.16
-5844.76
-5615.89
-5343.78
-5025.14
-4657.52
-4239.85
-3772.89
-3259.73
-2706.05
-2120.36
-1513.76
-899.564
-292.459
-5146.25
-5128.11
-5091.26
-5034.62
-4956.57
-4855.05
-4727.66
-4571.76
-4384.63
-4163.74
-3906.98
-3612.97
-3281.4
-2913.38
-2511.68
-2080.96
-1627.8
-1160.56
-689.046
-223.924
-4025.2
-4010.12
-3979.55
-3932.67
-3868.29
-3784.92
-3680.81
-3554.11
-3402.95
-3225.64
-3020.88
-2787.95
-2526.97
-2239.11
-1926.75
-1593.63
-1244.78
-886.469
-525.903
-170.845
-3127.26
-3114.91
-3089.89
-3051.62
-2999.23
-2931.64
-2847.62
-2745.86
-2625.11
-2484.27
-2322.55
-2139.65
-1935.9
-1712.38
-1471.09
-1214.95
-947.801
-674.312
-399.772
-129.83
-2413.26
-2403.27
-2383.06
-2352.22
-2310.11
-2255.97
-2188.93
-2108.11
-2012.66
-1901.87
-1775.32
-1632.93
-1475.09
-1302.78
-1117.6
-921.821
-718.341
-510.626
-302.554
-98.2305
-1849.65
-1841.67
-1825.55
-1800.98
-1767.52
-1724.65
-1671.75
-1608.22
-1533.5
-1447.18
-1349.02
-1239.06
-1117.73
-985.827
-844.633
-695.883
-541.758
-384.816
-227.894
-73.973
-1408.01
-1401.7
-1388.99
-1369.64
-1343.35
-1309.76
-1268.44
-1218.99
-1161.07
-1094.4
-1018.9
-934.676
-842.097
-741.832
-634.875
-522.546
-406.471
-288.531
-170.797
-55.4279
-1064.48
-1059.55
-1049.63
-1034.56
-1014.12
-988.058
-956.102
-917.983
-873.478
-822.442
-764.85
-700.834
-630.714
-555.025
-474.533
-390.23
-303.322
-215.188
-127.331
-41.3145
-799.227
-795.423
-787.76
-776.134
-760.399
-740.383
-715.901
-686.781
-652.887
-614.144
-570.565
-522.281
-469.558
-412.816
-352.637
-289.764
-225.083
-159.601
-94.4068
-30.6266
-595.928
-593.017
-587.158
-578.279
-566.282
-551.051
-532.467
-510.418
-484.826
-455.655
-422.94
-386.796
-347.44
-305.195
-260.501
-213.907
-166.062
-117.697
-69.5986
-22.5752
-441.261
-439.055
-434.617
-427.9
-418.838
-407.354
-393.371
-376.82
-357.657
-335.871
-311.501
-284.647
-255.479
-224.245
-191.271
-156.963
-121.791
-86.2856
-51.0098
-16.5435
-324.461
-322.805
-319.475
-314.44
-307.656
-299.074
-288.644
-276.324
-262.092
-245.95
-227.936
-208.132
-186.67
-163.736
-139.572
-114.473
-88.7814
-62.8763
-37.1618
-12.0509
-236.911
-235.679
-233.203
-229.462
-224.429
-218.07
-210.356
-201.261
-190.776
-178.91
-165.695
-151.197
-135.517
-118.795
-101.206
-82.9649
-64.3179
-45.5363
-26.9074
-8.72465
-171.772
-170.864
-169.039
-166.284
-162.581
-157.909
-152.251
-145.592
-137.929
-129.272
-119.651
-109.116
-97.7424
-85.6332
-72.9171
-59.748
-46.3019
-32.7716
-19.361
-6.27714
-123.667
-123.003
-121.669
-119.658
-116.956
-113.553
-109.437
-104.6
-99.043
-92.7765
-85.8239
-78.224
-70.0331
-61.3258
-52.1951
-42.7512
-33.1189
-23.4349
-13.8425
-4.48758
-88.4045
-87.9229
-86.9567
-85.5002
-83.5462
-81.0871
-78.1164
-74.631
-70.6328
-66.1311
-61.1444
-55.702
-49.8451
-43.6278
-37.1167
-30.3898
-23.5355
-16.6497
-9.83309
-3.18752
-62.7473
-62.4012
-61.7069
-60.6611
-59.2592
-57.4967
-55.37
-52.8781
-50.0236
-46.8143
-43.2642
-39.3953
-35.2374
-30.8293
-26.2183
-21.4594
-16.6147
-11.7513
-6.93914
-2.24925
-44.2164
-43.9696
-43.4749
-42.7301
-41.7325
-40.4795
-38.9692
-37.2016
-35.1794
-32.9088
-30.4004
-27.6703
-24.7399
-21.6368
-18.3943
-15.051
-11.6502
-8.23833
-4.86411
-1.57655
-30.9292
-30.7548
-30.4053
-29.8792
-29.1752
-28.2916
-27.2276
-25.9838
-24.5625
-22.9684
-21.2095
-19.2974
-17.2474
-15.0789
-12.8151
-10.483
-8.11245
-5.73565
-3.38606
-1.09743
-21.4686
-21.3463
-21.1015
-20.7331
-20.2404
-19.6226
-18.8794
-18.0113
-17.0204
-15.9103
-14.6867
-13.358
-11.935
-10.4311
-8.86253
-7.24789
-5.60774
-3.96414
-2.33999
-0.758355
-14.7755
-14.6907
-14.5207
-14.2652
-13.9236
-13.4956
-12.981
-12.3806
-11.6959
-10.9296
-10.0859
-9.17051
-8.19105
-7.15687
-6.07909
-4.97043
-3.84493
-2.7176
-1.60402
-0.519813
-10.0646
-10.0063
-9.88967
-9.71437
-9.48015
-9.18682
-8.8345
-8.42373
-7.95566
-7.43229
-6.85655
-6.23247
-5.56526
-4.86135
-4.12829
-3.37471
-2.6101
-1.84458
-1.08864
-0.35278
-6.75597
-6.7166
-6.63777
-6.51935
-6.3612
-6.16325
-5.92565
-5.64883
-5.33365
-4.98149
-4.59441
-4.17517
-3.72729
-3.2551
-2.76368
-2.25878
-1.74675
-1.2343
-0.728404
-0.236035
-4.42263
-4.3967
-4.3448
-4.26686
-4.16281
-4.03263
-3.87647
-3.69465
-3.48776
-3.25677
-3.00304
-2.72841
-2.43521
-2.12629
-1.80496
-1.47498
-1.14048
-0.805812
-0.475507
-0.15408
-2.74824
-2.73205
-2.69966
-2.65101
-2.58609
-2.5049
-2.40755
-2.29426
-2.16542
-2.02164
-1.86381
-1.69306
-1.51087
-1.31899
-1.1195
-0.914723
-0.707201
-0.499638
-0.294819
-0.095529
-1.49425
-1.48542
-1.46775
-1.44121
-1.40581
-1.36156
-1.30851
-1.24679
-1.17663
-1.09837
-1.01248
-0.919614
-0.820552
-0.716264
-0.607871
-0.496635
-0.383936
-0.271236
-0.160041
-0.0518564
-0.473238
-0.470437
-0.46483
-0.456413
-0.445185
-0.431149
-0.414328
-0.394762
-0.372524
-0.347724
-0.320513
-0.291095
-0.259721
-0.226699
-0.192382
-0.15717
-0.121499
-0.085832
-0.0506435
-0.0164094
)
;

boundaryField
{
    topWall
    {
        type            calculated;
        value           uniform 0;
    }
    bottomWall
    {
        type            calculated;
        value           nonuniform List<scalar> 
20
(
-185588
-185695
-185916
-186271
-186787
-187509
-188499
-189848
-191685
-194200
-197673
-202539
-209489
-219689
-235250
-260397
-304764
-394150
-609892
-1.24287e+06
)
;
    }
    sideWallL
    {
        type            symmetry;
    }
    sideWallR
    {
        type            calculated;
        value           nonuniform List<scalar> 
45
(
-775085
-204787
-73320.9
-34017.9
-19074.5
-12051.6
-8184.06
-5812.52
-4250.17
-3169.15
-2394.79
-1826.06
-1400.68
-1078.28
-831.608
-641.638
-494.719
-380.826
-292.459
-223.924
-170.845
-129.83
-98.2305
-73.973
-55.4279
-41.3145
-30.6266
-22.5752
-16.5435
-12.0509
-8.72465
-6.27714
-4.48758
-3.18752
-2.24925
-1.57655
-1.09743
-0.758355
-0.519813
-0.35278
-0.236035
-0.15408
-0.095529
-0.0518564
-0.0164094
)
;
    }
    frontAndBack
    {
        type            empty;
    }
}


// ************************************************************************* //
