/*--------------------------------*- C++ -*----------------------------------*\
  =========                 |
  \\      /  F ield         | OpenFOAM: The Open Source CFD Toolbox
   \\    /   O peration     | Website:  https://openfoam.org
    \\  /    A nd           | Version:  7
     \\/     M anipulation  |
\*---------------------------------------------------------------------------*/
FoamFile
{
    version     2.0;
    format      ascii;
    class       volScalarField;
    location    "23";
    object      rhoc;
}
// * * * * * * * * * * * * * * * * * * * * * * * * * * * * * * * * * * * * * //

dimensions      [1 -3 0 0 0 0 0];

internalField   nonuniform List<scalar> 
900
(
2.05821e-10
2.05554e-10
2.04998e-10
2.04108e-10
2.02813e-10
2.01005e-10
1.98537e-10
1.95202e-10
1.90718e-10
1.84704e-10
1.76646e-10
1.65865e-10
1.51486e-10
1.3245e-10
1.07687e-10
7.67456e-11
4.1767e-11
1.1814e-11
4.58249e-13
4.78536e-18
1.82662e-12
1.81883e-12
1.80271e-12
1.77715e-12
1.74041e-12
1.69011e-12
1.62314e-12
1.53576e-12
1.42375e-12
1.28294e-12
1.11038e-12
9.06397e-13
6.77979e-13
4.43026e-13
2.32643e-13
8.39791e-14
1.51913e-14
6.84233e-16
1.40029e-18
1.60967e-24
1.79276e-14
1.77918e-14
1.75123e-14
1.70735e-14
1.64525e-14
1.56206e-14
1.45455e-14
1.31978e-14
1.15607e-14
9.64644e-15
7.51882e-15
5.31636e-15
3.26008e-15
1.61446e-15
5.74265e-16
1.20097e-16
1.03524e-17
1.92659e-19
2.43526e-22
4.6541e-27
2.06277e-16
2.04012e-16
1.99381e-16
1.92191e-16
1.82182e-16
1.69078e-16
1.52664e-16
1.32922e-16
1.10216e-16
8.55087e-17
6.05237e-17
3.76772e-17
1.95432e-17
7.78755e-18
2.10551e-18
3.18705e-19
2.00721e-20
3.38745e-22
8.88145e-25
3.69393e-28
2.9415e-18
2.89978e-18
2.81502e-18
2.68487e-18
2.50662e-18
2.2784e-18
2.00091e-18
1.67987e-18
1.32866e-18
9.7018e-19
6.35873e-19
3.59652e-19
1.66085e-19
5.79016e-20
1.36435e-20
1.86333e-21
1.20344e-22
2.90856e-24
2.29055e-26
1.03015e-28
5.46511e-20
5.37275e-20
5.18617e-20
4.90253e-20
4.51971e-20
4.03917e-20
3.46982e-20
2.83242e-20
2.16318e-20
1.51361e-20
9.43386e-21
5.04316e-21
2.1984e-21
7.30918e-22
1.70009e-22
2.48795e-23
2.04082e-24
8.62559e-26
2.03168e-27
4.98779e-29
1.37987e-21
1.35378e-21
1.30133e-21
1.22227e-21
1.11682e-21
9.86539e-22
8.35249e-22
6.69995e-22
5.01481e-22
3.43318e-22
2.09485e-22
1.10206e-22
4.79336e-23
1.63728e-23
4.1364e-24
7.26005e-25
8.43435e-26
6.54284e-27
4.014e-28
3.19239e-29
4.89069e-23
4.79262e-23
4.59622e-23
4.30193e-23
3.91281e-23
3.43732e-23
2.89242e-23
2.30621e-23
1.71812e-23
1.17497e-23
7.21473e-24
3.8719e-24
1.75912e-24
6.52854e-25
1.90883e-25
4.27351e-26
7.30333e-27
1.00958e-27
1.34919e-28
2.39026e-29
2.4872e-24
2.43678e-24
2.33604e-24
2.18564e-24
1.98778e-24
1.74742e-24
1.4737e-24
1.18093e-24
8.88395e-25
6.18222e-25
3.91021e-25
2.20285e-25
1.08124e-25
4.52424e-26
1.58637e-26
4.64139e-27
1.15989e-27
2.6637e-28
6.46585e-29
1.96781e-29
1.83643e-25
1.80046e-25
1.72866e-25
1.62162e-25
1.48101e-25
1.31037e-25
1.11601e-25
9.07578e-26
6.97907e-26
5.01671e-26
3.32747e-26
2.00848e-26
1.08858e-26
5.24221e-27
2.23534e-27
8.52799e-28
3.00921e-28
1.04684e-28
3.92408e-29
1.72096e-29
1.97535e-26
1.93963e-26
1.86833e-26
1.76196e-26
1.622e-26
1.45161e-26
1.25645e-26
1.04516e-26
8.2938e-27
6.22675e-27
4.38456e-27
2.87167e-27
1.73801e-27
9.69579e-28
5.00911e-28
2.43474e-28
1.14764e-28
5.48191e-29
2.78673e-29
1.56646e-29
3.08621e-27
3.0372e-27
2.93922e-27
2.7927e-27
2.59912e-27
2.36195e-27
2.08762e-27
1.78633e-27
1.47215e-27
1.16217e-27
8.74324e-28
6.2427e-28
4.2223e-28
2.7103e-28
1.66342e-28
9.90297e-29
5.84349e-29
3.5083e-29
2.19844e-29
1.46512e-29
6.93459e-28
6.84301e-28
6.65958e-28
6.38426e-28
6.01844e-28
5.56642e-28
5.03715e-28
4.44579e-28
3.81439e-28
3.17115e-28
2.54783e-28
1.9753e-28
1.47837e-28
1.07151e-28
7.57092e-29
5.26899e-29
3.66054e-29
2.57632e-29
1.86214e-29
1.39645e-29
2.19148e-28
2.16874e-28
2.12308e-28
2.05426e-28
1.96224e-28
1.84747e-28
1.71134e-28
1.55654e-28
1.38733e-28
1.20954e-28
1.03027e-28
8.57127e-29
6.9719e-29
5.55996e-29
4.36768e-29
3.40204e-29
2.64839e-29
2.07791e-29
1.65599e-29
1.34886e-29
9.34997e-29
9.27739e-29
9.13134e-29
8.91034e-29
8.61299e-29
8.2389e-29
7.78983e-29
7.27093e-29
6.69172e-29
6.06664e-29
5.41475e-29
4.75838e-29
4.12091e-29
3.52391e-29
2.98449e-29
2.51348e-29
2.11493e-29
1.78693e-29
1.52325e-29
1.31534e-29
5.08775e-29
5.05918e-29
5.00159e-29
4.91415e-29
4.79589e-29
4.64602e-29
4.46434e-29
4.25163e-29
4.01016e-29
3.74394e-29
3.45887e-29
3.16249e-29
2.86349e-29
2.57087e-29
2.293e-29
2.03678e-29
1.80699e-29
1.60618e-29
1.43476e-29
1.29148e-29
3.32305e-29
3.30978e-29
3.28298e-29
3.24218e-29
3.18679e-29
3.11622e-29
3.03003e-29
2.92813e-29
2.81099e-29
2.67978e-29
2.53651e-29
2.38403e-29
2.2259e-29
2.06615e-29
1.90896e-29
1.75827e-29
1.6174e-29
1.48888e-29
1.37431e-29
1.27436e-29
2.47169e-29
2.46469e-29
2.45055e-29
2.42898e-29
2.39964e-29
2.3621e-29
2.31603e-29
2.2612e-29
2.1976e-29
2.12558e-29
2.04586e-29
1.95959e-29
1.86838e-29
1.77416e-29
1.67909e-29
1.58541e-29
1.49522e-29
1.41036e-29
1.3323e-29
1.26204e-29
2.01168e-29
2.00764e-29
1.99945e-29
1.98696e-29
1.96994e-29
1.94812e-29
1.92125e-29
1.88914e-29
1.85168e-29
1.80895e-29
1.76121e-29
1.70897e-29
1.653e-29
1.59429e-29
1.534e-29
1.47344e-29
1.4139e-29
1.35665e-29
1.30276e-29
1.25314e-29
1.74187e-29
1.73936e-29
1.7343e-29
1.72657e-29
1.71603e-29
1.70251e-29
1.68584e-29
1.66586e-29
1.64247e-29
1.61568e-29
1.58556e-29
1.55237e-29
1.51649e-29
1.47846e-29
1.43893e-29
1.39869e-29
1.35856e-29
1.31935e-29
1.28184e-29
1.24671e-29
1.57402e-29
1.5724e-29
1.56912e-29
1.56411e-29
1.55728e-29
1.54852e-29
1.5377e-29
1.52473e-29
1.50952e-29
1.49205e-29
1.47235e-29
1.45053e-29
1.42682e-29
1.40151e-29
1.375e-29
1.34775e-29
1.3203e-29
1.29319e-29
1.26695e-29
1.24206e-29
1.46518e-29
1.46409e-29
1.4619e-29
1.45854e-29
1.45397e-29
1.44811e-29
1.44088e-29
1.4322e-29
1.42203e-29
1.41032e-29
1.39711e-29
1.38243e-29
1.36643e-29
1.34928e-29
1.33121e-29
1.31254e-29
1.29359e-29
1.27473e-29
1.25633e-29
1.23872e-29
1.39251e-29
1.39177e-29
1.39026e-29
1.38797e-29
1.38484e-29
1.38084e-29
1.3759e-29
1.36998e-29
1.36304e-29
1.35506e-29
1.34604e-29
1.33602e-29
1.32507e-29
1.3133e-29
1.30088e-29
1.28798e-29
1.27483e-29
1.26167e-29
1.24875e-29
1.23631e-29
1.34302e-29
1.3425e-29
1.34146e-29
1.33986e-29
1.3377e-29
1.33492e-29
1.33151e-29
1.32742e-29
1.32263e-29
1.31712e-29
1.3109e-29
1.30399e-29
1.29643e-29
1.2883e-29
1.27969e-29
1.27074e-29
1.26159e-29
1.2524e-29
1.24334e-29
1.23458e-29
1.30886e-29
1.3085e-29
1.30777e-29
1.30665e-29
1.30514e-29
1.3032e-29
1.30082e-29
1.29797e-29
1.29464e-29
1.29081e-29
1.28649e-29
1.2817e-29
1.27646e-29
1.27082e-29
1.26484e-29
1.25862e-29
1.25225e-29
1.24584e-29
1.2395e-29
1.23335e-29
1.28509e-29
1.28484e-29
1.28432e-29
1.28354e-29
1.28247e-29
1.28111e-29
1.27945e-29
1.27746e-29
1.27513e-29
1.27246e-29
1.26946e-29
1.26613e-29
1.26248e-29
1.25856e-29
1.25442e-29
1.25009e-29
1.24566e-29
1.24119e-29
1.23677e-29
1.23247e-29
1.26848e-29
1.2683e-29
1.26793e-29
1.26738e-29
1.26663e-29
1.26568e-29
1.26451e-29
1.26312e-29
1.26149e-29
1.25963e-29
1.25754e-29
1.25522e-29
1.25269e-29
1.24997e-29
1.24709e-29
1.24409e-29
1.24102e-29
1.23792e-29
1.23484e-29
1.23185e-29
1.25684e-29
1.25672e-29
1.25646e-29
1.25607e-29
1.25555e-29
1.25488e-29
1.25406e-29
1.25309e-29
1.25195e-29
1.25066e-29
1.2492e-29
1.24759e-29
1.24584e-29
1.24395e-29
1.24196e-29
1.23989e-29
1.23776e-29
1.23561e-29
1.23348e-29
1.23141e-29
1.2487e-29
1.24861e-29
1.24843e-29
1.24816e-29
1.24779e-29
1.24733e-29
1.24675e-29
1.24608e-29
1.24529e-29
1.24439e-29
1.24338e-29
1.24226e-29
1.24105e-29
1.23975e-29
1.23837e-29
1.23694e-29
1.23548e-29
1.234e-29
1.23253e-29
1.2311e-29
1.24302e-29
1.24295e-29
1.24283e-29
1.24264e-29
1.24238e-29
1.24205e-29
1.24166e-29
1.24119e-29
1.24064e-29
1.24002e-29
1.23932e-29
1.23855e-29
1.23771e-29
1.23682e-29
1.23588e-29
1.23489e-29
1.23389e-29
1.23287e-29
1.23187e-29
1.23088e-29
1.23905e-29
1.23901e-29
1.23892e-29
1.23879e-29
1.23861e-29
1.23839e-29
1.23811e-29
1.23779e-29
1.23741e-29
1.23698e-29
1.2365e-29
1.23597e-29
1.2354e-29
1.23479e-29
1.23414e-29
1.23347e-29
1.23278e-29
1.23209e-29
1.23141e-29
1.23074e-29
1.23631e-29
1.23628e-29
1.23622e-29
1.23613e-29
1.236e-29
1.23585e-29
1.23566e-29
1.23543e-29
1.23518e-29
1.23488e-29
1.23455e-29
1.23419e-29
1.2338e-29
1.23338e-29
1.23295e-29
1.23249e-29
1.23202e-29
1.23155e-29
1.23109e-29
1.23063e-29
1.23441e-29
1.23439e-29
1.23435e-29
1.23429e-29
1.2342e-29
1.2341e-29
1.23397e-29
1.23381e-29
1.23364e-29
1.23344e-29
1.23321e-29
1.23297e-29
1.2327e-29
1.23242e-29
1.23212e-29
1.23182e-29
1.2315e-29
1.23118e-29
1.23087e-29
1.23056e-29
1.23311e-29
1.2331e-29
1.23307e-29
1.23303e-29
1.23297e-29
1.2329e-29
1.23281e-29
1.2327e-29
1.23258e-29
1.23245e-29
1.2323e-29
1.23213e-29
1.23195e-29
1.23176e-29
1.23156e-29
1.23135e-29
1.23114e-29
1.23093e-29
1.23072e-29
1.23051e-29
1.23222e-29
1.23221e-29
1.23219e-29
1.23216e-29
1.23213e-29
1.23208e-29
1.23202e-29
1.23195e-29
1.23187e-29
1.23177e-29
1.23167e-29
1.23156e-29
1.23144e-29
1.23131e-29
1.23118e-29
1.23104e-29
1.2309e-29
1.23076e-29
1.23062e-29
1.23048e-29
1.23162e-29
1.23161e-29
1.2316e-29
1.23158e-29
1.23155e-29
1.23152e-29
1.23148e-29
1.23143e-29
1.23138e-29
1.23132e-29
1.23125e-29
1.23118e-29
1.2311e-29
1.23101e-29
1.23092e-29
1.23083e-29
1.23074e-29
1.23064e-29
1.23055e-29
1.23046e-29
1.23121e-29
1.23121e-29
1.2312e-29
1.23119e-29
1.23117e-29
1.23115e-29
1.23112e-29
1.23109e-29
1.23105e-29
1.23101e-29
1.23097e-29
1.23092e-29
1.23086e-29
1.23081e-29
1.23075e-29
1.23069e-29
1.23063e-29
1.23056e-29
1.2305e-29
1.23044e-29
1.23094e-29
1.23094e-29
1.23093e-29
1.23092e-29
1.23091e-29
1.2309e-29
1.23088e-29
1.23086e-29
1.23083e-29
1.23081e-29
1.23078e-29
1.23074e-29
1.23071e-29
1.23067e-29
1.23063e-29
1.23059e-29
1.23055e-29
1.23051e-29
1.23047e-29
1.23043e-29
1.23076e-29
1.23076e-29
1.23075e-29
1.23075e-29
1.23074e-29
1.23073e-29
1.23072e-29
1.2307e-29
1.23069e-29
1.23067e-29
1.23065e-29
1.23063e-29
1.23061e-29
1.23058e-29
1.23056e-29
1.23053e-29
1.2305e-29
1.23048e-29
1.23045e-29
1.23043e-29
1.23064e-29
1.23064e-29
1.23063e-29
1.23063e-29
1.23063e-29
1.23062e-29
1.23061e-29
1.2306e-29
1.23059e-29
1.23058e-29
1.23057e-29
1.23055e-29
1.23054e-29
1.23052e-29
1.23051e-29
1.23049e-29
1.23047e-29
1.23046e-29
1.23044e-29
1.23042e-29
1.23056e-29
1.23056e-29
1.23056e-29
1.23056e-29
1.23055e-29
1.23055e-29
1.23054e-29
1.23054e-29
1.23053e-29
1.23052e-29
1.23051e-29
1.23051e-29
1.2305e-29
1.23049e-29
1.23047e-29
1.23046e-29
1.23045e-29
1.23044e-29
1.23043e-29
1.23042e-29
1.23051e-29
1.23051e-29
1.23051e-29
1.23051e-29
1.2305e-29
1.2305e-29
1.2305e-29
1.23049e-29
1.23049e-29
1.23049e-29
1.23048e-29
1.23047e-29
1.23047e-29
1.23046e-29
1.23045e-29
1.23045e-29
1.23044e-29
1.23043e-29
1.23042e-29
1.23042e-29
1.23048e-29
1.23048e-29
1.23048e-29
1.23048e-29
1.23047e-29
1.23047e-29
1.23047e-29
1.23047e-29
1.23047e-29
1.23046e-29
1.23046e-29
1.23045e-29
1.23045e-29
1.23045e-29
1.23044e-29
1.23044e-29
1.23043e-29
1.23043e-29
1.23042e-29
1.23042e-29
1.23046e-29
1.23046e-29
1.23046e-29
1.23046e-29
1.23046e-29
1.23046e-29
1.23045e-29
1.23045e-29
1.23045e-29
1.23045e-29
1.23045e-29
1.23044e-29
1.23044e-29
1.23044e-29
1.23043e-29
1.23043e-29
1.23043e-29
1.23042e-29
1.23042e-29
1.23042e-29
1.23045e-29
1.23045e-29
1.23045e-29
1.23045e-29
1.23045e-29
1.23045e-29
1.23045e-29
1.23045e-29
1.23044e-29
1.23044e-29
1.23044e-29
1.23044e-29
1.23044e-29
1.23043e-29
1.23043e-29
1.23043e-29
1.23042e-29
1.23042e-29
1.23042e-29
1.23042e-29
)
;

boundaryField
{
    topWall
    {
        type            zeroGradient;
    }
    bottomWall
    {
        type            zeroGradient;
    }
    sideWallL
    {
        type            symmetry;
    }
    sideWallR
    {
        type            zeroGradient;
    }
    frontAndBack
    {
        type            empty;
    }
}


// ************************************************************************* //
