/*--------------------------------*- C++ -*----------------------------------*\
  =========                 |
  \\      /  F ield         | OpenFOAM: The Open Source CFD Toolbox
   \\    /   O peration     | Website:  https://openfoam.org
    \\  /    A nd           | Version:  7
     \\/     M anipulation  |
\*---------------------------------------------------------------------------*/
FoamFile
{
    version     2.0;
    format      ascii;
    class       volScalarField;
    location    "23";
    object      rhog;
}
// * * * * * * * * * * * * * * * * * * * * * * * * * * * * * * * * * * * * * //

dimensions      [1 -3 0 0 0 0 0];

internalField   nonuniform List<scalar> 
900
(
0.000191524
0.000191378
0.000191074
0.000190588
0.000189878
0.000188886
0.000187526
0.000185678
0.000183175
0.000179781
0.000175166
0.000168855
0.00016017
0.000148131
0.000131331
0.000107855
7.57254e-05
3.63289e-05
5.46463e-06
6.4415e-09
1.24339e-05
1.24027e-05
1.23378e-05
1.22345e-05
1.2085e-05
1.18784e-05
1.15995e-05
1.12287e-05
1.07406e-05
1.01044e-05
9.28433e-06
8.24374e-06
6.95517e-06
5.4221e-06
3.7193e-06
2.04828e-06
7.51894e-07
1.21645e-07
3.14103e-09
8.8436e-13
8.44179e-07
8.40386e-07
8.32545e-07
8.20136e-07
8.02362e-07
7.78126e-07
7.46032e-07
7.04421e-07
6.51484e-07
5.85543e-07
5.05588e-07
4.12228e-07
3.09086e-07
2.04343e-07
1.11148e-07
4.41734e-08
1.03815e-08
9.7856e-10
1.82808e-11
2.53949e-14
6.20509e-08
6.16445e-08
6.0808e-08
5.94941e-08
5.76325e-08
5.51325e-08
5.18892e-08
4.77964e-08
4.27719e-08
3.67986e-08
2.99864e-08
2.26475e-08
1.53531e-08
8.90209e-09
4.09981e-09
1.33673e-09
2.57999e-10
2.25336e-11
6.30925e-13
5.3081e-15
5.11025e-09
5.06678e-09
4.97771e-09
4.83885e-09
4.64431e-09
4.38702e-09
4.05993e-09
3.65791e-09
3.18077e-09
2.63749e-09
2.05089e-09
1.46084e-09
9.22183e-10
4.92282e-10
2.07932e-10
6.33226e-11
1.22758e-11
1.30755e-12
6.90477e-14
2.38354e-15
4.866e-10
4.81642e-10
4.71523e-10
4.55863e-10
4.34151e-10
4.05841e-10
3.70508e-10
3.28083e-10
2.79178e-10
2.25452e-10
1.69897e-10
1.16797e-10
7.10567e-11
3.67439e-11
1.53246e-11
4.82975e-12
1.06962e-12
1.57021e-13
1.57026e-14
1.50523e-15
5.50278e-11
5.43971e-11
5.3115e-11
5.11434e-11
4.84347e-11
4.49452e-11
4.06562e-11
3.56023e-11
2.99061e-11
2.38101e-11
1.76895e-11
1.20203e-11
7.2833e-12
3.81356e-12
1.66291e-12
5.80457e-13
1.56928e-13
3.27594e-14
5.74795e-15
1.13215e-15
7.54611e-12
7.45389e-12
7.26698e-12
6.98104e-12
6.59103e-12
6.0933e-12
5.48848e-12
4.78526e-12
4.00448e-12
3.18209e-12
2.36912e-12
1.62567e-12
1.00823e-12
5.52768e-13
2.6181e-13
1.05066e-13
3.55049e-14
1.03801e-14
2.89386e-15
9.40394e-16
1.27279e-12
1.25697e-12
1.22497e-12
1.17621e-12
1.11004e-12
1.02614e-12
9.24927e-13
8.08178e-13
6.79541e-13
5.44904e-13
4.12227e-13
2.90558e-13
1.88198e-13
1.10459e-13
5.8057e-14
2.71875e-14
1.14569e-14
4.51576e-15
1.80879e-15
8.29795e-16
2.66064e-13
2.62843e-13
2.5634e-13
2.46453e-13
2.3308e-13
2.16182e-13
1.95871e-13
1.72509e-13
1.46801e-13
1.19849e-13
9.31114e-14
6.82382e-14
4.67635e-14
2.97465e-14
1.74995e-14
9.55829e-15
4.93144e-15
2.49367e-15
1.30962e-15
7.61091e-16
6.90626e-14
6.82827e-14
6.67093e-14
6.43201e-14
6.10926e-14
5.70189e-14
5.2124e-14
4.6487e-14
4.02608e-14
3.36832e-14
2.70698e-14
2.07823e-14
1.51708e-14
1.05034e-14
6.90723e-15
4.34966e-15
2.66913e-15
1.64144e-15
1.04768e-15
7.16226e-16
2.22049e-14
2.19812e-14
2.153e-14
2.0845e-14
1.99195e-14
1.87505e-14
1.73428e-14
1.5715e-14
1.39042e-14
1.19693e-14
9.98967e-15
8.05939e-15
6.27408e-15
4.7149e-15
3.4334e-15
2.44329e-15
1.72266e-15
1.2255e-15
8.96912e-16
6.85901e-16
8.78676e-15
8.71152e-15
8.55975e-15
8.32919e-15
8.01734e-15
7.62257e-15
7.14547e-15
6.59051e-15
5.96758e-15
5.29307e-15
4.58997e-15
3.88643e-15
3.21282e-15
2.59733e-15
2.06162e-15
1.61751e-15
1.26612e-15
9.99523e-16
8.04235e-16
6.64903e-16
4.22942e-15
4.20017e-15
4.14114e-15
4.05138e-15
3.92976e-15
3.77537e-15
3.58796e-15
3.36852e-15
3.11985e-15
2.84697e-15
2.5573e-15
2.26038e-15
1.96708e-15
1.68833e-15
1.43371e-15
1.21012e-15
1.02109e-15
8.6675e-16
7.44513e-16
6.50113e-16
2.42806e-15
2.41515e-15
2.38906e-15
2.34934e-15
2.29543e-15
2.22679e-15
2.1431e-15
2.04447e-15
1.93168e-15
1.80639e-15
1.6712e-15
1.52969e-15
1.38614e-15
1.24518e-15
1.11128e-15
9.88231e-16
8.78713e-16
7.84141e-16
7.04695e-16
6.39572e-16
1.61698e-15
1.61062e-15
1.59776e-15
1.57816e-15
1.55152e-15
1.5175e-15
1.47585e-15
1.4265e-15
1.36961e-15
1.30575e-15
1.2359e-15
1.16149e-15
1.08437e-15
1.00665e-15
9.30515e-16
8.58046e-16
7.90973e-16
7.30549e-16
6.7749e-16
6.31998e-16
1.21e-15
1.20657e-15
1.19963e-15
1.18905e-15
1.17464e-15
1.15621e-15
1.13356e-15
1.1066e-15
1.07534e-15
1.03994e-15
1.0008e-15
9.58528e-16
9.13975e-16
8.68162e-16
8.22225e-16
7.77318e-16
7.34511e-16
6.94707e-16
6.58574e-16
6.26528e-16
9.87124e-16
9.85133e-16
9.81108e-16
9.74964e-16
9.6659e-16
9.55859e-16
9.42647e-16
9.26863e-16
9.0847e-16
8.87514e-16
8.64151e-16
8.38661e-16
8.11452e-16
7.83049e-16
7.54067e-16
7.25168e-16
6.97012e-16
6.70205e-16
6.45259e-16
6.22565e-16
8.56379e-16
8.55155e-16
8.52681e-16
8.48905e-16
8.43754e-16
8.37148e-16
8.29003e-16
8.19251e-16
8.07848e-16
7.948e-16
7.80168e-16
7.64084e-16
7.46759e-16
7.28474e-16
7.09577e-16
6.90459e-16
6.7153e-16
6.53191e-16
6.35809e-16
6.19691e-16
7.75504e-16
7.74718e-16
7.73129e-16
7.70704e-16
7.67396e-16
7.63153e-16
7.57917e-16
7.51639e-16
7.44286e-16
7.35847e-16
7.26347e-16
7.15853e-16
7.04475e-16
6.92375e-16
6.79755e-16
6.66854e-16
6.53931e-16
6.4125e-16
6.29066e-16
6.17606e-16
7.23434e-16
7.22913e-16
7.21858e-16
7.20249e-16
7.18055e-16
7.15241e-16
7.11769e-16
7.07604e-16
7.02722e-16
6.9711e-16
6.90778e-16
6.83761e-16
6.76121e-16
6.67954e-16
6.59383e-16
6.50556e-16
6.4164e-16
6.3281e-16
6.24241e-16
6.16095e-16
6.88901e-16
6.88546e-16
6.8783e-16
6.86736e-16
6.85247e-16
6.83337e-16
6.80983e-16
6.78159e-16
6.74849e-16
6.71042e-16
6.66742e-16
6.61968e-16
6.56758e-16
6.5117e-16
6.4528e-16
6.39185e-16
6.32992e-16
6.26819e-16
6.20784e-16
6.15003e-16
6.65501e-16
6.65256e-16
6.64761e-16
6.64006e-16
6.62978e-16
6.61661e-16
6.6004e-16
6.58096e-16
6.55819e-16
6.53202e-16
6.50244e-16
6.46958e-16
6.43368e-16
6.39509e-16
6.35432e-16
6.31199e-16
6.26881e-16
6.22557e-16
6.18309e-16
6.14215e-16
6.49405e-16
6.49234e-16
6.48888e-16
6.4836e-16
6.47644e-16
6.46726e-16
6.45598e-16
6.44247e-16
6.42666e-16
6.4085e-16
6.38799e-16
6.36521e-16
6.34031e-16
6.31352e-16
6.28518e-16
6.25569e-16
6.22554e-16
6.19526e-16
6.16539e-16
6.13649e-16
6.38221e-16
6.381e-16
6.37857e-16
6.37486e-16
6.36983e-16
6.3634e-16
6.3555e-16
6.34606e-16
6.33502e-16
6.32236e-16
6.30807e-16
6.29221e-16
6.27488e-16
6.25624e-16
6.2365e-16
6.21595e-16
6.1949e-16
6.17371e-16
6.15276e-16
6.13243e-16
6.30401e-16
6.30316e-16
6.30144e-16
6.29883e-16
6.29529e-16
6.29077e-16
6.28522e-16
6.27861e-16
6.27088e-16
6.26203e-16
6.25206e-16
6.241e-16
6.22893e-16
6.21595e-16
6.2022e-16
6.18789e-16
6.17321e-16
6.15842e-16
6.14378e-16
6.12954e-16
6.24917e-16
6.24857e-16
6.24735e-16
6.24551e-16
6.24302e-16
6.23984e-16
6.23594e-16
6.2313e-16
6.2259e-16
6.21971e-16
6.21275e-16
6.20505e-16
6.19664e-16
6.18761e-16
6.17806e-16
6.16811e-16
6.15791e-16
6.14762e-16
6.13742e-16
6.12749e-16
6.21067e-16
6.21024e-16
6.20939e-16
6.20809e-16
6.20634e-16
6.2041e-16
6.20137e-16
6.19812e-16
6.19435e-16
6.19003e-16
6.18519e-16
6.17983e-16
6.17399e-16
6.16772e-16
6.1611e-16
6.1542e-16
6.14713e-16
6.14e-16
6.13293e-16
6.12604e-16
6.18366e-16
6.18337e-16
6.18277e-16
6.18186e-16
6.18062e-16
6.17906e-16
6.17715e-16
6.17488e-16
6.17225e-16
6.16925e-16
6.16589e-16
6.16217e-16
6.15813e-16
6.1538e-16
6.14922e-16
6.14446e-16
6.13958e-16
6.13466e-16
6.12978e-16
6.12502e-16
6.16477e-16
6.16456e-16
6.16414e-16
6.1635e-16
6.16265e-16
6.16155e-16
6.16023e-16
6.15865e-16
6.15682e-16
6.15474e-16
6.15242e-16
6.14985e-16
6.14706e-16
6.14408e-16
6.14093e-16
6.13766e-16
6.13431e-16
6.13093e-16
6.12758e-16
6.12431e-16
6.15159e-16
6.15145e-16
6.15116e-16
6.15071e-16
6.15012e-16
6.14936e-16
6.14844e-16
6.14735e-16
6.14609e-16
6.14465e-16
6.14305e-16
6.14129e-16
6.13937e-16
6.13733e-16
6.13517e-16
6.13294e-16
6.13064e-16
6.12834e-16
6.12605e-16
6.12381e-16
6.14244e-16
6.14234e-16
6.14214e-16
6.14184e-16
6.14142e-16
6.1409e-16
6.14027e-16
6.13952e-16
6.13865e-16
6.13766e-16
6.13657e-16
6.13536e-16
6.13406e-16
6.13266e-16
6.13119e-16
6.12967e-16
6.12811e-16
6.12654e-16
6.12499e-16
6.12347e-16
6.13612e-16
6.13605e-16
6.13591e-16
6.1357e-16
6.13542e-16
6.13506e-16
6.13463e-16
6.13411e-16
6.13352e-16
6.13285e-16
6.1321e-16
6.13128e-16
6.1304e-16
6.12945e-16
6.12845e-16
6.12742e-16
6.12637e-16
6.12531e-16
6.12426e-16
6.12323e-16
6.13178e-16
6.13173e-16
6.13163e-16
6.13149e-16
6.1313e-16
6.13105e-16
6.13075e-16
6.13041e-16
6.13e-16
6.12955e-16
6.12904e-16
6.12849e-16
6.12789e-16
6.12725e-16
6.12658e-16
6.12589e-16
6.12518e-16
6.12447e-16
6.12376e-16
6.12307e-16
6.1288e-16
6.12877e-16
6.12871e-16
6.12861e-16
6.12848e-16
6.12831e-16
6.12811e-16
6.12788e-16
6.12761e-16
6.1273e-16
6.12696e-16
6.12659e-16
6.12618e-16
6.12576e-16
6.12531e-16
6.12484e-16
6.12437e-16
6.12389e-16
6.12342e-16
6.12296e-16
6.12679e-16
6.12676e-16
6.12672e-16
6.12665e-16
6.12657e-16
6.12645e-16
6.12632e-16
6.12616e-16
6.12598e-16
6.12577e-16
6.12555e-16
6.1253e-16
6.12503e-16
6.12474e-16
6.12445e-16
6.12414e-16
6.12382e-16
6.12351e-16
6.12319e-16
6.12289e-16
6.12542e-16
6.12541e-16
6.12538e-16
6.12533e-16
6.12528e-16
6.1252e-16
6.12511e-16
6.12501e-16
6.12488e-16
6.12475e-16
6.1246e-16
6.12443e-16
6.12425e-16
6.12406e-16
6.12387e-16
6.12366e-16
6.12345e-16
6.12324e-16
6.12304e-16
6.12284e-16
6.12451e-16
6.1245e-16
6.12448e-16
6.12445e-16
6.12441e-16
6.12436e-16
6.1243e-16
6.12423e-16
6.12415e-16
6.12406e-16
6.12396e-16
6.12385e-16
6.12373e-16
6.12361e-16
6.12348e-16
6.12335e-16
6.12321e-16
6.12307e-16
6.12294e-16
6.1228e-16
6.1239e-16
6.12389e-16
6.12388e-16
6.12386e-16
6.12383e-16
6.1238e-16
6.12376e-16
6.12372e-16
6.12366e-16
6.1236e-16
6.12354e-16
6.12347e-16
6.12339e-16
6.12331e-16
6.12322e-16
6.12314e-16
6.12305e-16
6.12296e-16
6.12287e-16
6.12278e-16
6.1235e-16
6.12349e-16
6.12348e-16
6.12347e-16
6.12345e-16
6.12343e-16
6.12341e-16
6.12338e-16
6.12334e-16
6.1233e-16
6.12326e-16
6.12321e-16
6.12316e-16
6.12311e-16
6.12305e-16
6.123e-16
6.12294e-16
6.12288e-16
6.12282e-16
6.12277e-16
6.12323e-16
6.12323e-16
6.12322e-16
6.12322e-16
6.1232e-16
6.12319e-16
6.12317e-16
6.12315e-16
6.12313e-16
6.12311e-16
6.12308e-16
6.12305e-16
6.12301e-16
6.12298e-16
6.12294e-16
6.12291e-16
6.12287e-16
6.12283e-16
6.12279e-16
6.12276e-16
6.12306e-16
6.12306e-16
6.12306e-16
6.12305e-16
6.12304e-16
6.12304e-16
6.12302e-16
6.12301e-16
6.123e-16
6.12298e-16
6.12296e-16
6.12294e-16
6.12292e-16
6.1229e-16
6.12287e-16
6.12285e-16
6.12282e-16
6.1228e-16
6.12277e-16
6.12275e-16
6.12296e-16
6.12296e-16
6.12295e-16
6.12295e-16
6.12295e-16
6.12294e-16
6.12293e-16
6.12292e-16
6.12291e-16
6.1229e-16
6.12289e-16
6.12288e-16
6.12286e-16
6.12285e-16
6.12283e-16
6.12281e-16
6.1228e-16
6.12278e-16
6.12276e-16
6.12275e-16
6.1229e-16
6.1229e-16
6.12289e-16
6.12289e-16
6.12289e-16
6.12288e-16
6.12288e-16
6.12287e-16
6.12286e-16
6.12286e-16
6.12285e-16
6.12284e-16
6.12283e-16
6.12282e-16
6.1228e-16
6.12279e-16
6.12278e-16
6.12277e-16
6.12276e-16
6.12275e-16
6.12287e-16
6.12287e-16
6.12287e-16
6.12286e-16
6.12286e-16
6.12286e-16
6.12285e-16
6.12285e-16
6.12284e-16
6.12283e-16
6.12283e-16
6.12282e-16
6.12281e-16
6.1228e-16
6.12279e-16
6.12278e-16
6.12277e-16
6.12276e-16
6.12275e-16
6.12274e-16
)
;

boundaryField
{
    topWall
    {
        type            calculated;
        value           uniform 0;
    }
    bottomWall
    {
        type            zeroGradient;
    }
    sideWallL
    {
        type            symmetry;
    }
    sideWallR
    {
        type            calculated;
        value           uniform 0;
    }
    frontAndBack
    {
        type            empty;
    }
}


// ************************************************************************* //
