/*--------------------------------*- C++ -*----------------------------------*\
  =========                 |
  \\      /  F ield         | OpenFOAM: The Open Source CFD Toolbox
   \\    /   O peration     | Website:  https://openfoam.org
    \\  /    A nd           | Version:  7
     \\/     M anipulation  |
\*---------------------------------------------------------------------------*/
FoamFile
{
    version     2.0;
    format      ascii;
    class       volScalarField;
    location    "23";
    object      rhois;
}
// * * * * * * * * * * * * * * * * * * * * * * * * * * * * * * * * * * * * * //

dimensions      [1 -3 0 0 0 0 0];

internalField   nonuniform List<scalar> 
900
(
0.00232287
0.00232162
0.00231901
0.00231482
0.0023087
0.00230011
0.00228829
0.00227217
0.00225022
0.00222026
0.00217918
0.00212241
0.00204316
0.00193109
0.00177011
0.00153485
0.00118768
0.000696971
0.00017627
1.3412e-06
0.000312201
0.000311644
0.000310488
0.00030864
0.000305956
0.000302223
0.000297147
0.00029033
0.000281244
0.0002692
0.000253325
0.000232565
0.000205762
0.000171927
0.000130945
8.50668e-05
4.11995e-05
1.10344e-05
7.88159e-07
2.29239e-09
4.35055e-05
4.33669e-05
4.30798e-05
4.26233e-05
4.19651e-05
4.10595e-05
3.98458e-05
3.8247e-05
3.61698e-05
3.35091e-05
3.01603e-05
2.6047e-05
2.11745e-05
1.57183e-05
1.01349e-05
5.21058e-06
1.83469e-06
3.35261e-07
1.93795e-08
1.90633e-10
6.45128e-06
6.42136e-06
6.35957e-06
6.26192e-06
6.12233e-06
5.93253e-06
5.68215e-06
5.35914e-06
4.95084e-06
4.44627e-06
3.84036e-06
3.14063e-06
2.37632e-06
1.60678e-06
9.20638e-07
4.11667e-07
1.26504e-07
2.21385e-08
1.75653e-09
6.5016e-11
1.04411e-06
1.03783e-06
1.02492e-06
1.00463e-06
9.75886e-07
9.37272e-07
8.87142e-07
8.23793e-07
7.45809e-07
6.52632e-07
5.45409e-07
4.28042e-07
3.08086e-07
1.96662e-07
1.06189e-07
4.54179e-08
1.41113e-08
2.88807e-09
3.7015e-10
3.76477e-11
1.88773e-07
1.87419e-07
1.84639e-07
1.803e-07
1.74203e-07
1.66105e-07
1.55748e-07
1.42902e-07
1.27453e-07
1.09515e-07
8.95734e-08
6.86206e-08
4.81864e-08
3.01438e-08
1.61919e-08
7.14044e-09
2.46389e-09
6.44126e-10
1.32769e-10
2.74951e-11
3.88941e-08
3.85817e-08
3.79427e-08
3.69502e-08
3.55664e-08
3.37469e-08
3.14488e-08
2.86425e-08
2.53297e-08
2.15656e-08
1.7483e-08
1.3306e-08
9.33932e-09
5.91502e-09
3.29633e-09
1.57516e-09
6.33469e-10
2.15927e-10
6.69683e-11
2.2602e-11
9.27728e-09
9.19834e-09
9.03735e-09
8.7884e-09
8.44345e-09
7.99357e-09
7.43095e-09
6.75188e-09
5.96074e-09
5.07458e-09
4.12721e-09
3.17042e-09
2.26965e-09
1.49183e-09
8.87112e-10
4.72038e-10
2.24836e-10
9.82974e-11
4.21982e-11
1.98726e-11
2.59091e-09
2.56871e-09
2.52352e-09
2.45388e-09
2.35785e-09
2.23335e-09
2.07875e-09
1.89356e-09
1.67951e-09
1.44148e-09
1.18839e-09
9.33175e-10
6.91627e-10
4.79577e-10
3.09063e-10
1.84923e-10
1.03764e-10
5.61528e-11
3.08009e-11
1.82083e-11
8.53141e-10
8.46124e-10
8.31866e-10
8.0995e-10
7.79827e-10
7.40928e-10
6.92823e-10
6.35437e-10
5.69319e-10
4.95904e-10
4.17704e-10
3.38304e-10
2.62039e-10
1.9331e-10
1.35663e-10
9.09485e-11
5.89745e-11
3.78411e-11
2.47958e-11
1.7133e-11
3.32217e-10
3.2972e-10
3.24652e-10
3.16873e-10
3.06204e-10
2.92456e-10
2.75486e-10
2.55265e-10
2.31958e-10
2.06005e-10
1.78175e-10
1.49572e-10
1.21544e-10
9.5505e-11
7.26832e-11
5.38768e-11
3.93157e-11
2.86889e-11
2.13215e-11
1.64107e-11
1.52753e-10
1.51756e-10
1.49732e-10
1.4663e-10
1.42379e-10
1.36905e-10
1.30149e-10
1.22091e-10
1.12777e-10
1.02348e-10
9.10595e-11
7.92849e-11
6.74941e-11
5.62006e-11
4.58852e-11
3.69161e-11
2.94914e-11
2.36241e-11
1.91747e-11
1.59122e-11
8.23003e-11
8.18564e-11
8.09561e-11
7.95763e-11
7.7686e-11
7.52517e-11
7.22447e-11
6.86501e-11
6.44781e-11
5.97749e-11
5.46308e-11
4.9184e-11
4.36146e-11
3.81288e-11
3.29336e-11
2.82081e-11
2.40787e-11
2.06054e-11
1.77844e-11
1.55616e-11
5.11744e-11
5.09566e-11
5.05149e-11
4.98381e-11
4.89108e-11
4.77159e-11
4.62377e-11
4.4466e-11
4.24005e-11
4.0056e-11
3.7466e-11
3.46854e-11
3.1789e-11
2.88668e-11
2.60149e-11
2.33246e-11
2.08712e-11
1.8706e-11
1.68531e-11
1.53118e-11
3.59297e-11
3.58134e-11
3.55775e-11
3.52161e-11
3.47207e-11
3.4082e-11
3.32907e-11
3.23398e-11
3.12266e-11
2.99553e-11
2.85386e-11
2.69996e-11
2.53716e-11
2.36965e-11
2.2022e-11
2.03966e-11
1.88648e-11
1.74624e-11
1.62141e-11
1.51322e-11
2.77845e-11
2.77178e-11
2.75825e-11
2.73751e-11
2.70909e-11
2.67242e-11
2.62695e-11
2.57218e-11
2.50786e-11
2.43402e-11
2.35117e-11
2.2603e-11
2.163e-11
2.06134e-11
1.95781e-11
1.8551e-11
1.75585e-11
1.66245e-11
1.5768e-11
1.50023e-11
2.31111e-11
2.30705e-11
2.29881e-11
2.2862e-11
2.26892e-11
2.24661e-11
2.21893e-11
2.18555e-11
2.14624e-11
2.10096e-11
2.04988e-11
1.99346e-11
1.93248e-11
1.86803e-11
1.80148e-11
1.73435e-11
1.66828e-11
1.6048e-11
1.54527e-11
1.4908e-11
2.02726e-11
2.02467e-11
2.01943e-11
2.01139e-11
2.00038e-11
1.98618e-11
1.96855e-11
1.94727e-11
1.92219e-11
1.89322e-11
1.86042e-11
1.82401e-11
1.78439e-11
1.74217e-11
1.69813e-11
1.65317e-11
1.6083e-11
1.56453e-11
1.5228e-11
1.48394e-11
1.84704e-11
1.84533e-11
1.84186e-11
1.83655e-11
1.82929e-11
1.81992e-11
1.8083e-11
1.79427e-11
1.77772e-11
1.75858e-11
1.73686e-11
1.71268e-11
1.68625e-11
1.65792e-11
1.62815e-11
1.5975e-11
1.5666e-11
1.53612e-11
1.50671e-11
1.47895e-11
1.72866e-11
1.7275e-11
1.72515e-11
1.72155e-11
1.71662e-11
1.71028e-11
1.70241e-11
1.69292e-11
1.68173e-11
1.66879e-11
1.65408e-11
1.63768e-11
1.6197e-11
1.60036e-11
1.57993e-11
1.55878e-11
1.5373e-11
1.51594e-11
1.49514e-11
1.47532e-11
1.64891e-11
1.6481e-11
1.64648e-11
1.64398e-11
1.64058e-11
1.6362e-11
1.63078e-11
1.62424e-11
1.61654e-11
1.60764e-11
1.59752e-11
1.58623e-11
1.57383e-11
1.56047e-11
1.54631e-11
1.53159e-11
1.51657e-11
1.50155e-11
1.48682e-11
1.47269e-11
1.59418e-11
1.59361e-11
1.59247e-11
1.59072e-11
1.58834e-11
1.58528e-11
1.58149e-11
1.57693e-11
1.57157e-11
1.56537e-11
1.55834e-11
1.55048e-11
1.54186e-11
1.53255e-11
1.52268e-11
1.51238e-11
1.50184e-11
1.49126e-11
1.48084e-11
1.47078e-11
1.55613e-11
1.55573e-11
1.55492e-11
1.55368e-11
1.552e-11
1.54984e-11
1.54717e-11
1.54397e-11
1.5402e-11
1.53586e-11
1.53093e-11
1.52544e-11
1.51941e-11
1.5129e-11
1.50598e-11
1.49876e-11
1.49136e-11
1.4839e-11
1.47654e-11
1.46941e-11
1.52944e-11
1.52916e-11
1.52858e-11
1.52771e-11
1.52651e-11
1.52498e-11
1.52309e-11
1.52083e-11
1.51818e-11
1.51512e-11
1.51166e-11
1.5078e-11
1.50357e-11
1.49901e-11
1.49416e-11
1.48909e-11
1.48389e-11
1.47865e-11
1.47346e-11
1.46842e-11
1.51063e-11
1.51043e-11
1.51002e-11
1.5094e-11
1.50855e-11
1.50746e-11
1.50612e-11
1.50452e-11
1.50265e-11
1.50049e-11
1.49806e-11
1.49535e-11
1.49238e-11
1.48918e-11
1.48578e-11
1.48223e-11
1.47859e-11
1.47491e-11
1.47126e-11
1.46771e-11
1.49734e-11
1.4972e-11
1.4969e-11
1.49646e-11
1.49585e-11
1.49508e-11
1.49413e-11
1.493e-11
1.49168e-11
1.49016e-11
1.48845e-11
1.48655e-11
1.48447e-11
1.48223e-11
1.47985e-11
1.47737e-11
1.47482e-11
1.47225e-11
1.46969e-11
1.4672e-11
1.48794e-11
1.48784e-11
1.48763e-11
1.48731e-11
1.48689e-11
1.48634e-11
1.48567e-11
1.48487e-11
1.48394e-11
1.48287e-11
1.48167e-11
1.48034e-11
1.47888e-11
1.47732e-11
1.47566e-11
1.47393e-11
1.47215e-11
1.47036e-11
1.46858e-11
1.46684e-11
1.4813e-11
1.48123e-11
1.48108e-11
1.48086e-11
1.48056e-11
1.48017e-11
1.4797e-11
1.47914e-11
1.47848e-11
1.47774e-11
1.4769e-11
1.47597e-11
1.47495e-11
1.47386e-11
1.47271e-11
1.47151e-11
1.47028e-11
1.46903e-11
1.46779e-11
1.46659e-11
1.47663e-11
1.47658e-11
1.47647e-11
1.47631e-11
1.4761e-11
1.47583e-11
1.4755e-11
1.47511e-11
1.47465e-11
1.47413e-11
1.47354e-11
1.4729e-11
1.47219e-11
1.47144e-11
1.47064e-11
1.46981e-11
1.46896e-11
1.4681e-11
1.46724e-11
1.46641e-11
1.47335e-11
1.47331e-11
1.47324e-11
1.47313e-11
1.47298e-11
1.47279e-11
1.47256e-11
1.47228e-11
1.47196e-11
1.4716e-11
1.4712e-11
1.47075e-11
1.47026e-11
1.46974e-11
1.46919e-11
1.46862e-11
1.46804e-11
1.46744e-11
1.46686e-11
1.46629e-11
1.47105e-11
1.47103e-11
1.47098e-11
1.4709e-11
1.47079e-11
1.47066e-11
1.4705e-11
1.47031e-11
1.47009e-11
1.46984e-11
1.46956e-11
1.46925e-11
1.46892e-11
1.46856e-11
1.46819e-11
1.4678e-11
1.46739e-11
1.46699e-11
1.46659e-11
1.4662e-11
1.46946e-11
1.46944e-11
1.4694e-11
1.46935e-11
1.46928e-11
1.46919e-11
1.46908e-11
1.46894e-11
1.46879e-11
1.46862e-11
1.46843e-11
1.46822e-11
1.46799e-11
1.46775e-11
1.46749e-11
1.46722e-11
1.46695e-11
1.46668e-11
1.4664e-11
1.46614e-11
1.46835e-11
1.46834e-11
1.46832e-11
1.46828e-11
1.46823e-11
1.46817e-11
1.46809e-11
1.468e-11
1.4679e-11
1.46778e-11
1.46765e-11
1.46751e-11
1.46735e-11
1.46719e-11
1.46701e-11
1.46683e-11
1.46665e-11
1.46646e-11
1.46628e-11
1.4661e-11
1.46759e-11
1.46758e-11
1.46757e-11
1.46754e-11
1.46751e-11
1.46747e-11
1.46741e-11
1.46735e-11
1.46728e-11
1.4672e-11
1.46711e-11
1.46702e-11
1.46691e-11
1.4668e-11
1.46668e-11
1.46656e-11
1.46644e-11
1.46631e-11
1.46619e-11
1.46607e-11
1.46707e-11
1.46707e-11
1.46706e-11
1.46704e-11
1.46702e-11
1.46699e-11
1.46695e-11
1.46691e-11
1.46686e-11
1.46681e-11
1.46675e-11
1.46668e-11
1.46661e-11
1.46654e-11
1.46646e-11
1.46638e-11
1.4663e-11
1.46621e-11
1.46613e-11
1.46605e-11
1.46672e-11
1.46672e-11
1.46671e-11
1.4667e-11
1.46668e-11
1.46666e-11
1.46664e-11
1.46661e-11
1.46658e-11
1.46654e-11
1.4665e-11
1.46646e-11
1.46641e-11
1.46636e-11
1.46631e-11
1.46626e-11
1.4662e-11
1.46615e-11
1.46609e-11
1.46604e-11
1.46648e-11
1.46648e-11
1.46647e-11
1.46647e-11
1.46646e-11
1.46644e-11
1.46643e-11
1.46641e-11
1.46639e-11
1.46636e-11
1.46634e-11
1.46631e-11
1.46628e-11
1.46624e-11
1.46621e-11
1.46617e-11
1.46614e-11
1.4661e-11
1.46606e-11
1.46603e-11
1.46632e-11
1.46632e-11
1.46632e-11
1.46631e-11
1.4663e-11
1.4663e-11
1.46628e-11
1.46627e-11
1.46626e-11
1.46624e-11
1.46622e-11
1.46621e-11
1.46619e-11
1.46616e-11
1.46614e-11
1.46612e-11
1.46609e-11
1.46607e-11
1.46605e-11
1.46602e-11
1.46621e-11
1.46621e-11
1.46621e-11
1.46621e-11
1.4662e-11
1.4662e-11
1.46619e-11
1.46618e-11
1.46617e-11
1.46616e-11
1.46615e-11
1.46614e-11
1.46612e-11
1.46611e-11
1.4661e-11
1.46608e-11
1.46606e-11
1.46605e-11
1.46603e-11
1.46602e-11
1.46614e-11
1.46614e-11
1.46614e-11
1.46614e-11
1.46614e-11
1.46613e-11
1.46613e-11
1.46612e-11
1.46612e-11
1.46611e-11
1.4661e-11
1.46609e-11
1.46609e-11
1.46608e-11
1.46607e-11
1.46606e-11
1.46605e-11
1.46604e-11
1.46603e-11
1.46602e-11
1.4661e-11
1.4661e-11
1.4661e-11
1.46609e-11
1.46609e-11
1.46609e-11
1.46609e-11
1.46608e-11
1.46608e-11
1.46608e-11
1.46607e-11
1.46607e-11
1.46606e-11
1.46605e-11
1.46605e-11
1.46604e-11
1.46603e-11
1.46603e-11
1.46602e-11
1.46601e-11
1.46607e-11
1.46607e-11
1.46607e-11
1.46607e-11
1.46606e-11
1.46606e-11
1.46606e-11
1.46606e-11
1.46606e-11
1.46605e-11
1.46605e-11
1.46605e-11
1.46604e-11
1.46604e-11
1.46603e-11
1.46603e-11
1.46603e-11
1.46602e-11
1.46602e-11
1.46601e-11
1.46605e-11
1.46605e-11
1.46605e-11
1.46605e-11
1.46605e-11
1.46605e-11
1.46604e-11
1.46604e-11
1.46604e-11
1.46604e-11
1.46604e-11
1.46603e-11
1.46603e-11
1.46603e-11
1.46603e-11
1.46602e-11
1.46602e-11
1.46602e-11
1.46602e-11
1.46601e-11
1.46604e-11
1.46604e-11
1.46604e-11
1.46604e-11
1.46604e-11
1.46604e-11
1.46604e-11
1.46603e-11
1.46603e-11
1.46603e-11
1.46603e-11
1.46603e-11
1.46603e-11
1.46602e-11
1.46602e-11
1.46602e-11
1.46602e-11
1.46602e-11
1.46601e-11
1.46601e-11
1.46603e-11
1.46603e-11
1.46603e-11
1.46603e-11
1.46603e-11
1.46603e-11
1.46603e-11
1.46603e-11
1.46603e-11
1.46603e-11
1.46603e-11
1.46603e-11
1.46602e-11
1.46602e-11
1.46602e-11
1.46602e-11
1.46602e-11
1.46602e-11
1.46601e-11
1.46601e-11
)
;

boundaryField
{
    topWall
    {
        type            zeroGradient;
    }
    bottomWall
    {
        type            zeroGradient;
    }
    sideWallL
    {
        type            symmetry;
    }
    sideWallR
    {
        type            zeroGradient;
    }
    frontAndBack
    {
        type            empty;
    }
}


// ************************************************************************* //
