/*--------------------------------*- C++ -*----------------------------------*\
  =========                 |
  \\      /  F ield         | OpenFOAM: The Open Source CFD Toolbox
   \\    /   O peration     | Website:  https://openfoam.org
    \\  /    A nd           | Version:  7
     \\/     M anipulation  |
\*---------------------------------------------------------------------------*/
FoamFile
{
    version     2.0;
    format      ascii;
    class       volScalarField;
    location    "23";
    object      rhot2;
}
// * * * * * * * * * * * * * * * * * * * * * * * * * * * * * * * * * * * * * //

dimensions      [1 -3 0 0 0 0 0];

internalField   nonuniform List<scalar> 
900
(
7.55585e-08
7.54503e-08
7.52252e-08
7.48652e-08
7.43415e-08
7.36117e-08
7.26165e-08
7.12742e-08
6.94742e-08
6.70677e-08
6.38574e-08
5.95867e-08
5.39354e-08
4.65386e-08
3.70763e-08
2.55593e-08
1.31021e-08
3.26962e-09
9.11006e-11
2.67064e-16
4.26389e-10
4.24373e-10
4.20205e-10
4.13604e-10
4.04138e-10
3.91216e-10
3.74087e-10
3.5186e-10
3.23576e-10
2.88373e-10
2.45806e-10
1.96405e-10
1.42492e-10
8.90394e-11
4.36894e-11
1.41567e-11
2.13152e-12
6.82659e-14
6.84037e-17
1.38205e-23
2.61988e-12
2.59776e-12
2.55231e-12
2.48115e-12
2.38084e-12
2.24716e-12
2.0757e-12
1.86286e-12
1.60771e-12
1.31461e-12
9.96567e-13
6.77956e-13
3.93691e-13
1.80249e-13
5.70883e-14
9.99636e-15
6.49161e-16
7.51851e-18
4.12498e-21
1.74867e-26
1.87377e-14
1.85073e-14
1.80374e-14
1.73106e-14
1.63048e-14
1.49982e-14
1.33792e-14
1.14601e-14
9.29529e-15
6.99984e-15
4.75789e-15
2.80192e-15
1.34565e-15
4.8114e-16
1.11383e-16
1.34377e-17
6.03083e-19
6.07706e-21
7.23113e-24
9.34513e-28
1.66483e-16
1.63828e-16
1.58451e-16
1.50235e-16
1.39067e-16
1.24917e-16
1.07956e-16
8.87034e-17
6.8166e-17
4.78925e-17
2.98074e-17
1.57228e-17
6.60379e-18
2.02165e-18
3.97973e-19
4.22883e-20
1.91978e-21
2.82913e-23
1.12584e-25
2.09922e-28
1.95039e-18
1.91318e-18
1.83829e-18
1.72513e-18
1.5738e-18
1.38625e-18
1.16784e-18
9.28865e-19
6.85398e-19
4.5825e-19
2.68926e-19
1.32735e-19
5.20357e-20
1.50175e-20
2.89088e-21
3.28495e-22
1.92416e-23
5.22452e-25
6.99531e-27
8.92173e-29
3.16985e-20
3.10192e-20
2.96595e-20
2.76239e-20
2.49376e-20
2.16668e-20
1.79422e-20
1.39774e-20
1.00682e-20
6.55605e-21
3.74756e-21
1.81085e-21
7.05171e-22
2.08639e-22
4.37643e-23
6.04636e-24
5.18036e-25
2.74865e-26
1.06883e-27
5.25244e-29
7.43523e-22
7.26555e-22
6.92728e-22
6.4243e-22
5.76683e-22
4.97602e-22
4.08868e-22
3.15998e-22
2.26091e-22
1.46763e-22
8.42834e-23
4.15203e-23
1.69144e-23
5.46675e-24
1.34314e-24
2.42138e-25
3.1732e-26
3.19366e-27
2.97774e-28
3.71939e-29
2.58598e-23
2.52604e-23
2.40683e-23
2.23031e-23
2.00083e-23
1.72657e-23
1.42096e-23
1.10313e-23
7.96766e-24
5.2645e-24
3.11834e-24
1.61759e-24
7.16171e-25
2.63705e-25
7.90382e-26
1.91247e-26
3.81459e-27
6.76192e-28
1.24463e-28
2.94708e-29
1.35343e-24
1.32294e-24
1.26237e-24
1.17279e-24
1.05652e-24
9.17696e-25
7.6293e-25
6.0147e-25
4.44624e-25
3.04122e-25
1.89591e-25
1.05979e-25
5.22705e-26
2.24454e-26
8.34071e-27
2.70519e-27
7.92012e-28
2.24441e-28
6.84328e-29
2.50927e-29
1.07048e-25
1.04804e-25
1.00345e-25
9.37445e-26
8.51594e-26
7.48708e-26
6.33245e-26
5.11463e-26
3.91097e-26
2.80383e-26
1.86514e-26
1.1396e-26
6.34196e-27
3.20089e-27
1.47026e-27
6.24437e-28
2.5345e-28
1.0351e-28
4.52809e-29
2.24092e-29
1.27449e-26
1.25075e-26
1.2035e-26
1.13336e-26
1.04169e-26
9.31001e-27
8.05373e-27
6.70654e-27
5.34283e-27
4.04544e-27
2.89269e-27
1.94289e-27
1.22205e-27
7.20607e-28
4.0133e-28
2.14484e-28
1.12812e-28
6.03414e-29
3.39665e-29
2.06747e-29
2.25723e-27
2.22169e-27
2.15077e-27
2.04505e-27
1.90595e-27
1.73632e-27
1.54103e-27
1.32741e-27
1.10518e-27
8.85833e-28
6.81157e-28
5.01364e-28
3.53219e-28
2.38945e-28
1.56365e-28
1.00206e-28
6.39465e-29
4.14265e-29
2.7756e-29
1.95112e-29
5.80954e-28
5.73612e-28
5.58921e-28
5.36914e-28
5.07738e-28
4.71767e-28
4.29722e-28
3.82773e-28
3.32577e-28
2.8122e-28
2.31035e-28
1.84302e-28
1.42907e-28
1.08051e-28
8.012e-29
5.87453e-29
4.30318e-29
3.18446e-29
2.40584e-29
1.87104e-29
2.08758e-28
2.0674e-28
2.02691e-28
1.96596e-28
1.88456e-28
1.78314e-28
1.6629e-28
1.52606e-28
1.37609e-28
1.21772e-28
1.05669e-28
8.99218e-29
7.51246e-29
6.17674e-29
5.01742e-29
4.04774e-29
3.2633e-29
2.64657e-29
2.1727e-29
1.8149e-29
9.90489e-29
9.83434e-29
9.69245e-29
9.47796e-29
9.18966e-29
8.82728e-29
8.3924e-29
7.88958e-29
7.32716e-29
6.7178e-29
6.07825e-29
5.42837e-29
4.78932e-29
4.18132e-29
3.62133e-29
3.12143e-29
2.68794e-29
2.32181e-29
2.01961e-29
1.77506e-29
5.83077e-29
5.80088e-29
5.74064e-29
5.64928e-29
5.52588e-29
5.36969e-29
5.1805e-29
4.95905e-29
4.70747e-29
4.42952e-29
4.13076e-29
3.81836e-29
3.50069e-29
3.18661e-29
2.8846e-29
2.60202e-29
2.34443e-29
2.11532e-29
1.91613e-29
1.74653e-29
4.02091e-29
4.00623e-29
3.97661e-29
3.93159e-29
3.87056e-29
3.79293e-29
3.69827e-29
3.58649e-29
3.45805e-29
3.31415e-29
3.15679e-29
2.98883e-29
2.81387e-29
2.63606e-29
2.45975e-29
2.28913e-29
2.12794e-29
1.97912e-29
1.84477e-29
1.726e-29
3.10158e-29
3.09354e-29
3.07729e-29
3.05257e-29
3.01898e-29
2.97611e-29
2.9236e-29
2.86122e-29
2.78899e-29
2.70728e-29
2.61685e-29
2.51892e-29
2.41519e-29
2.30769e-29
2.19876e-29
2.0908e-29
1.98616e-29
1.88693e-29
1.79485e-29
1.71119e-29
2.58651e-29
2.58173e-29
2.57209e-29
2.55739e-29
2.53741e-29
2.51185e-29
2.48046e-29
2.44303e-29
2.39948e-29
2.34989e-29
2.29456e-29
2.23407e-29
2.16923e-29
2.10114e-29
2.03107e-29
1.96046e-29
1.89077e-29
1.8234e-29
1.75961e-29
1.70048e-29
2.27677e-29
2.27377e-29
2.26771e-29
2.25847e-29
2.2459e-29
2.2298e-29
2.21001e-29
2.18636e-29
2.15875e-29
2.1272e-29
2.09181e-29
2.05287e-29
2.01081e-29
1.96623e-29
1.91988e-29
1.87262e-29
1.82537e-29
1.77907e-29
1.73459e-29
1.69274e-29
2.08086e-29
2.0789e-29
2.07493e-29
2.06888e-29
2.06065e-29
2.05012e-29
2.03715e-29
2.02165e-29
2.00353e-29
1.98277e-29
1.95942e-29
1.93363e-29
1.90563e-29
1.87577e-29
1.84451e-29
1.81238e-29
1.77997e-29
1.74789e-29
1.71676e-29
1.68715e-29
1.95243e-29
1.9511e-29
1.94843e-29
1.94436e-29
1.93883e-29
1.93174e-29
1.92303e-29
1.91261e-29
1.90043e-29
1.88645e-29
1.87071e-29
1.85329e-29
1.83432e-29
1.81401e-29
1.79266e-29
1.77059e-29
1.74819e-29
1.72587e-29
1.70405e-29
1.68313e-29
1.8661e-29
1.86519e-29
1.86336e-29
1.86057e-29
1.85678e-29
1.85193e-29
1.84597e-29
1.83885e-29
1.83052e-29
1.82097e-29
1.81021e-29
1.79829e-29
1.78528e-29
1.77134e-29
1.75663e-29
1.74138e-29
1.72583e-29
1.71028e-29
1.69499e-29
1.68024e-29
1.80709e-29
1.80646e-29
1.80519e-29
1.80325e-29
1.80062e-29
1.79726e-29
1.79314e-29
1.78822e-29
1.78247e-29
1.77588e-29
1.76846e-29
1.76024e-29
1.75126e-29
1.74163e-29
1.73146e-29
1.72088e-29
1.71008e-29
1.69923e-29
1.68853e-29
1.67818e-29
1.7663e-29
1.76586e-29
1.76497e-29
1.76362e-29
1.76178e-29
1.75944e-29
1.75657e-29
1.75315e-29
1.74916e-29
1.74459e-29
1.73945e-29
1.73375e-29
1.72754e-29
1.72087e-29
1.71381e-29
1.70648e-29
1.69897e-29
1.69142e-29
1.68395e-29
1.67671e-29
1.73792e-29
1.73761e-29
1.73699e-29
1.73604e-29
1.73476e-29
1.73312e-29
1.73112e-29
1.72873e-29
1.72596e-29
1.72278e-29
1.71921e-29
1.71526e-29
1.71095e-29
1.70633e-29
1.70144e-29
1.69636e-29
1.69115e-29
1.6859e-29
1.68071e-29
1.67566e-29
1.71812e-29
1.7179e-29
1.71746e-29
1.7168e-29
1.7159e-29
1.71476e-29
1.71336e-29
1.71169e-29
1.70976e-29
1.70755e-29
1.70507e-29
1.70233e-29
1.69935e-29
1.69615e-29
1.69277e-29
1.68926e-29
1.68565e-29
1.68202e-29
1.67843e-29
1.67492e-29
1.70428e-29
1.70413e-29
1.70382e-29
1.70336e-29
1.70273e-29
1.70193e-29
1.70096e-29
1.6998e-29
1.69846e-29
1.69693e-29
1.69521e-29
1.69331e-29
1.69125e-29
1.68905e-29
1.68671e-29
1.68429e-29
1.68181e-29
1.6793e-29
1.67682e-29
1.6744e-29
1.69463e-29
1.69452e-29
1.69431e-29
1.69399e-29
1.69355e-29
1.69299e-29
1.69232e-29
1.69151e-29
1.69058e-29
1.68952e-29
1.68834e-29
1.68703e-29
1.68561e-29
1.68409e-29
1.68249e-29
1.68083e-29
1.67912e-29
1.67741e-29
1.6757e-29
1.67404e-29
1.68791e-29
1.68784e-29
1.68769e-29
1.68747e-29
1.68716e-29
1.68678e-29
1.68631e-29
1.68575e-29
1.68511e-29
1.68438e-29
1.68357e-29
1.68267e-29
1.6817e-29
1.68066e-29
1.67956e-29
1.67843e-29
1.67726e-29
1.67609e-29
1.67492e-29
1.67379e-29
1.68326e-29
1.68321e-29
1.6831e-29
1.68295e-29
1.68274e-29
1.68247e-29
1.68215e-29
1.68177e-29
1.68133e-29
1.68083e-29
1.68027e-29
1.67966e-29
1.67899e-29
1.67828e-29
1.67754e-29
1.67677e-29
1.67597e-29
1.67518e-29
1.67439e-29
1.67362e-29
1.68004e-29
1.68001e-29
1.67994e-29
1.67983e-29
1.67968e-29
1.6795e-29
1.67928e-29
1.67902e-29
1.67872e-29
1.67838e-29
1.678e-29
1.67758e-29
1.67713e-29
1.67665e-29
1.67615e-29
1.67562e-29
1.67509e-29
1.67455e-29
1.67402e-29
1.6735e-29
1.67783e-29
1.67781e-29
1.67776e-29
1.67769e-29
1.67759e-29
1.67746e-29
1.67731e-29
1.67714e-29
1.67693e-29
1.6767e-29
1.67645e-29
1.67616e-29
1.67586e-29
1.67554e-29
1.6752e-29
1.67484e-29
1.67448e-29
1.67412e-29
1.67376e-29
1.67341e-29
1.67632e-29
1.67631e-29
1.67627e-29
1.67622e-29
1.67616e-29
1.67607e-29
1.67597e-29
1.67585e-29
1.67572e-29
1.67556e-29
1.67539e-29
1.6752e-29
1.67499e-29
1.67478e-29
1.67455e-29
1.67431e-29
1.67407e-29
1.67383e-29
1.67359e-29
1.67336e-29
1.6753e-29
1.67529e-29
1.67527e-29
1.67523e-29
1.67519e-29
1.67513e-29
1.67506e-29
1.67498e-29
1.67489e-29
1.67479e-29
1.67467e-29
1.67454e-29
1.67441e-29
1.67426e-29
1.67411e-29
1.67396e-29
1.6738e-29
1.67364e-29
1.67348e-29
1.67332e-29
1.67461e-29
1.6746e-29
1.67458e-29
1.67456e-29
1.67453e-29
1.67449e-29
1.67445e-29
1.6744e-29
1.67433e-29
1.67426e-29
1.67419e-29
1.6741e-29
1.67401e-29
1.67392e-29
1.67382e-29
1.67371e-29
1.67361e-29
1.6735e-29
1.6734e-29
1.6733e-29
1.67414e-29
1.67414e-29
1.67413e-29
1.67411e-29
1.67409e-29
1.67407e-29
1.67404e-29
1.674e-29
1.67396e-29
1.67392e-29
1.67387e-29
1.67381e-29
1.67375e-29
1.67369e-29
1.67362e-29
1.67355e-29
1.67348e-29
1.67341e-29
1.67335e-29
1.67328e-29
1.67383e-29
1.67383e-29
1.67382e-29
1.67381e-29
1.6738e-29
1.67378e-29
1.67376e-29
1.67374e-29
1.67371e-29
1.67368e-29
1.67365e-29
1.67362e-29
1.67358e-29
1.67353e-29
1.67349e-29
1.67345e-29
1.6734e-29
1.67336e-29
1.67331e-29
1.67327e-29
1.67363e-29
1.67363e-29
1.67362e-29
1.67362e-29
1.67361e-29
1.6736e-29
1.67358e-29
1.67357e-29
1.67355e-29
1.67353e-29
1.67351e-29
1.67349e-29
1.67346e-29
1.67343e-29
1.67341e-29
1.67338e-29
1.67335e-29
1.67332e-29
1.67329e-29
1.67326e-29
1.6735e-29
1.6735e-29
1.67349e-29
1.67349e-29
1.67348e-29
1.67348e-29
1.67347e-29
1.67346e-29
1.67345e-29
1.67343e-29
1.67342e-29
1.6734e-29
1.67339e-29
1.67337e-29
1.67335e-29
1.67333e-29
1.67331e-29
1.67329e-29
1.67327e-29
1.67326e-29
1.67341e-29
1.67341e-29
1.67341e-29
1.67341e-29
1.6734e-29
1.6734e-29
1.67339e-29
1.67338e-29
1.67338e-29
1.67337e-29
1.67336e-29
1.67335e-29
1.67334e-29
1.67333e-29
1.67331e-29
1.6733e-29
1.67329e-29
1.67328e-29
1.67326e-29
1.67325e-29
1.67336e-29
1.67336e-29
1.67336e-29
1.67335e-29
1.67335e-29
1.67335e-29
1.67334e-29
1.67334e-29
1.67333e-29
1.67333e-29
1.67332e-29
1.67332e-29
1.67331e-29
1.6733e-29
1.67329e-29
1.67328e-29
1.67328e-29
1.67327e-29
1.67326e-29
1.67325e-29
1.67333e-29
1.67333e-29
1.67332e-29
1.67332e-29
1.67332e-29
1.67332e-29
1.67332e-29
1.67331e-29
1.67331e-29
1.67331e-29
1.6733e-29
1.6733e-29
1.67329e-29
1.67329e-29
1.67328e-29
1.67327e-29
1.67327e-29
1.67326e-29
1.67326e-29
1.67325e-29
1.67331e-29
1.67331e-29
1.67331e-29
1.67331e-29
1.67331e-29
1.67331e-29
1.6733e-29
1.6733e-29
1.6733e-29
1.67329e-29
1.67329e-29
1.67329e-29
1.67328e-29
1.67328e-29
1.67327e-29
1.67327e-29
1.67326e-29
1.67326e-29
1.67325e-29
1.67325e-29
)
;

boundaryField
{
    topWall
    {
        type            zeroGradient;
    }
    bottomWall
    {
        type            zeroGradient;
    }
    sideWallL
    {
        type            symmetry;
    }
    sideWallR
    {
        type            zeroGradient;
    }
    frontAndBack
    {
        type            empty;
    }
}


// ************************************************************************* //
