/*--------------------------------*- C++ -*----------------------------------*\
  =========                 |
  \\      /  F ield         | OpenFOAM: The Open Source CFD Toolbox
   \\    /   O peration     | Website:  https://openfoam.org
    \\  /    A nd           | Version:  7
     \\/     M anipulation  |
\*---------------------------------------------------------------------------*/
FoamFile
{
    version     2.0;
    format      ascii;
    class       volScalarField;
    location    "23";
    object      T;
}
// * * * * * * * * * * * * * * * * * * * * * * * * * * * * * * * * * * * * * //

dimensions      [0 0 0 1 0 0 0];

internalField   nonuniform List<scalar> 
900
(
484.441
484.431
484.408
484.373
484.321
484.249
484.15
484.015
483.831
483.58
483.233
482.746
482.051
481.031
479.475
476.96
472.524
463.585
442.011
378.713
452.214
452.184
452.12
452.018
451.87
451.663
451.38
450.995
450.473
449.761
448.783
447.423
445.501
442.726
438.606
432.256
422.008
404.562
373.398
317.253
424.299
424.251
424.15
423.99
423.758
423.434
422.992
422.394
421.587
420.495
419.009
416.969
414.136
410.144
404.422
396.06
383.606
364.822
336.686
296.798
400.189
400.126
399.995
399.787
399.486
399.069
398.502
397.74
396.719
395.35
393.511
391.026
387.646
383.016
376.626
367.754
355.428
338.476
315.893
287.925
379.438
379.364
379.211
378.967
378.616
378.132
377.477
376.604
375.445
373.909
371.874
369.172
365.579
360.795
354.427
345.982
334.905
320.694
303.207
283.19
361.649
361.568
361.4
361.134
360.752
360.227
359.523
358.591
357.367
355.764
353.672
350.944
347.396
342.799
336.876
329.327
319.872
308.359
294.942
280.295
346.468
346.383
346.208
345.932
345.536
344.996
344.277
343.333
342.106
340.519
338.478
335.865
332.538
328.331
323.067
316.576
308.742
299.569
289.276
278.37
333.574
333.489
333.313
333.037
332.644
332.11
331.404
330.486
329.305
327.797
325.885
323.479
320.473
316.756
312.221
306.781
300.406
293.16
285.244
277.021
322.678
322.595
322.425
322.158
321.78
321.269
320.599
319.736
318.636
317.248
315.513
313.362
310.723
307.523
303.702
299.223
294.096
288.399
282.298
276.045
313.52
313.442
313.282
313.031
312.677
312.202
311.584
310.793
309.796
308.552
307.016
305.141
302.875
300.175
297.009
293.369
289.279
284.815
280.103
275.321
305.867
305.795
305.647
305.417
305.094
304.663
304.105
303.398
302.514
301.424
300.094
298.49
296.579
294.337
291.748
288.818
285.577
282.087
278.446
274.777
299.507
299.442
299.31
299.103
298.814
298.431
297.938
297.319
296.551
295.613
294.481
293.132
291.545
289.706
287.612
285.273
282.718
279.997
277.183
274.363
294.255
294.198
294.08
293.899
293.645
293.311
292.884
292.35
291.695
290.901
289.952
288.833
287.532
286.041
284.362
282.507
280.502
278.387
276.214
274.047
289.944
289.894
289.792
289.635
289.416
289.129
288.765
288.313
287.762
287.1
286.315
285.398
284.343
283.145
281.81
280.349
278.783
277.143
275.468
273.803
286.426
286.384
286.297
286.163
285.977
285.735
285.429
285.051
284.594
284.049
283.408
282.665
281.817
280.864
279.81
278.665
277.448
276.18
274.892
273.615
283.575
283.539
283.466
283.354
283.199
282.997
282.743
282.431
282.057
281.613
281.095
280.5
279.825
279.071
278.245
277.354
276.411
275.435
274.447
273.471
281.279
281.249
281.188
281.095
280.967
280.801
280.593
280.339
280.036
279.679
279.265
278.791
278.259
277.668
277.024
276.334
275.608
274.859
274.104
273.359
279.442
279.417
279.367
279.291
279.187
279.051
278.883
278.679
278.436
278.151
277.823
277.45
277.033
276.573
276.075
275.543
274.986
274.415
273.839
273.273
277.981
277.961
277.921
277.859
277.775
277.666
277.531
277.369
277.176
276.951
276.693
276.402
276.078
275.722
275.339
274.932
274.507
274.072
273.636
273.206
276.827
276.811
276.779
276.73
276.663
276.576
276.47
276.341
276.189
276.013
275.813
275.587
275.337
275.064
274.771
274.461
274.138
273.809
273.479
273.156
275.922
275.91
275.884
275.845
275.792
275.724
275.64
275.54
275.422
275.285
275.13
274.957
274.765
274.557
274.334
274.099
273.856
273.608
273.36
273.117
275.217
275.207
275.187
275.157
275.115
275.062
274.997
274.919
274.828
274.723
274.604
274.472
274.326
274.168
274
273.823
273.64
273.455
273.269
273.087
274.672
274.664
274.648
274.625
274.592
274.552
274.501
274.442
274.372
274.292
274.201
274.101
273.991
273.872
273.746
273.613
273.477
273.338
273.2
273.065
274.252
274.246
274.234
274.216
274.191
274.16
274.122
274.076
274.023
273.962
273.894
273.819
273.736
273.647
273.553
273.454
273.353
273.25
273.148
273.048
273.932
273.927
273.918
273.904
273.885
273.862
273.833
273.798
273.758
273.713
273.662
273.605
273.544
273.478
273.408
273.335
273.26
273.184
273.109
273.035
273.689
273.685
273.678
273.668
273.654
273.636
273.614
273.588
273.559
273.525
273.487
273.445
273.399
273.35
273.299
273.245
273.19
273.135
273.08
273.026
273.506
273.503
273.498
273.49
273.48
273.466
273.45
273.431
273.409
273.384
273.356
273.325
273.291
273.256
273.218
273.179
273.139
273.098
273.058
273.019
273.369
273.367
273.363
273.358
273.35
273.34
273.328
273.314
273.297
273.279
273.258
273.236
273.211
273.185
273.158
273.13
273.1
273.071
273.042
273.014
273.268
273.266
273.263
273.259
273.253
273.246
273.237
273.227
273.215
273.202
273.187
273.17
273.152
273.134
273.114
273.093
273.072
273.051
273.03
273.01
273.193
273.192
273.19
273.186
273.182
273.177
273.171
273.163
273.154
273.145
273.134
273.122
273.109
273.096
273.081
273.067
273.052
273.037
273.022
273.007
273.138
273.137
273.136
273.133
273.13
273.126
273.122
273.116
273.11
273.103
273.095
273.087
273.078
273.068
273.058
273.047
273.037
273.026
273.015
273.005
273.098
273.097
273.096
273.095
273.092
273.09
273.086
273.083
273.078
273.073
273.068
273.062
273.055
273.048
273.041
273.034
273.026
273.018
273.011
273.004
273.069
273.069
273.068
273.067
273.065
273.063
273.061
273.058
273.055
273.051
273.048
273.043
273.039
273.034
273.029
273.024
273.018
273.013
273.008
273.002
273.048
273.048
273.048
273.047
273.046
273.044
273.043
273.041
273.038
273.036
273.033
273.03
273.027
273.024
273.02
273.016
273.013
273.009
273.005
273.002
273.034
273.033
273.033
273.033
273.032
273.031
273.03
273.028
273.027
273.025
273.023
273.021
273.019
273.016
273.014
273.011
273.009
273.006
273.004
273.001
273.023
273.023
273.023
273.022
273.022
273.021
273.02
273.02
273.018
273.017
273.016
273.014
273.013
273.011
273.01
273.008
273.006
273.004
273.003
273.001
273.016
273.016
273.016
273.015
273.015
273.015
273.014
273.013
273.013
273.012
273.011
273.01
273.009
273.008
273.007
273.005
273.004
273.003
273.002
273.001
273.011
273.011
273.011
273.011
273.01
273.01
273.01
273.009
273.009
273.008
273.007
273.007
273.006
273.005
273.004
273.004
273.003
273.002
273.001
273
273.007
273.007
273.007
273.007
273.007
273.007
273.006
273.006
273.006
273.005
273.005
273.005
273.004
273.004
273.003
273.002
273.002
273.001
273.001
273
273.005
273.005
273.005
273.005
273.005
273.005
273.004
273.004
273.004
273.004
273.003
273.003
273.003
273.002
273.002
273.002
273.001
273.001
273.001
273
273.003
273.003
273.003
273.003
273.003
273.003
273.003
273.003
273.003
273.002
273.002
273.002
273.002
273.002
273.001
273.001
273.001
273.001
273
273
273.002
273.002
273.002
273.002
273.002
273.002
273.002
273.002
273.002
273.002
273.002
273.001
273.001
273.001
273.001
273.001
273.001
273
273
273
273.002
273.002
273.002
273.002
273.002
273.001
273.001
273.001
273.001
273.001
273.001
273.001
273.001
273.001
273.001
273.001
273
273
273
273
273.001
273.001
273.001
273.001
273.001
273.001
273.001
273.001
273.001
273.001
273.001
273.001
273.001
273.001
273
273
273
273
273
273
273.001
273.001
273.001
273.001
273.001
273.001
273.001
273.001
273.001
273.001
273.001
273.001
273.001
273
273
273
273
273
273
273
)
;

boundaryField
{
    topWall
    {
        type            zeroGradient;
    }
    bottomWall
    {
        type            codedFixedValue;
        value           uniform 503;
        name            heating;
        code            #{
            const scalar t = this->db().time().value();
            const scalar Ttemp = 273 + 10*t;
            operator==(Ttemp);
        #};
    }
    sideWallL
    {
        type            symmetry;
    }
    sideWallR
    {
        type            fixedValue;
        value           uniform 273;
    }
    frontAndBack
    {
        type            empty;
    }
}


// ************************************************************************* //
