/*--------------------------------*- C++ -*----------------------------------*\
  =========                 |
  \\      /  F ield         | OpenFOAM: The Open Source CFD Toolbox
   \\    /   O peration     | Website:  https://openfoam.org
    \\  /    A nd           | Version:  7
     \\/     M anipulation  |
\*---------------------------------------------------------------------------*/
FoamFile
{
    version     2.0;
    format      ascii;
    class       volScalarField;
    location    "4";
    object      gradTx;
}
// * * * * * * * * * * * * * * * * * * * * * * * * * * * * * * * * * * * * * //

dimensions      [0 -1 0 1 0 0 0];

internalField   nonuniform List<scalar> 
900
(
-0.00525466
-0.0198572
-0.0498182
-0.117702
-0.272961
-0.624295
-1.40717
-3.12317
-6.82488
-14.6969
-31.2526
-65.8643
-138.386
-292.654
-632.562
-1431.71
-3514.38
-9746.12
-31414
-116823
-0.0146848
-0.0554448
-0.138888
-0.327488
-0.757649
-1.72787
-3.88119
-8.5777
-18.6447
-39.874
-84.0093
-174.76
-360.172
-738.891
-1518.06
-3144.84
-6604.7
-14032.1
-29408.3
-55098.4
-0.0214593
-0.080894
-0.202074
-0.474748
-1.09353
-2.48085
-5.53771
-12.1458
-26.1528
-55.2705
-114.677
-233.778
-468.772
-925.718
-1801.68
-3452.43
-6479.12
-11730.7
-19751.9
-28272.6
-0.0247539
-0.093111
-0.231711
-0.541691
-1.24032
-2.79413
-6.18509
-13.4304
-28.5691
-59.48
-121.127
-241.155
-469.101
-890.546
-1646.01
-2947.7
-5065.86
-8203.26
-12088.8
-15173
-0.0246674
-0.0925434
-0.229252
-0.532785
-1.21134
-2.70631
-5.93264
-12.7349
-26.7208
-54.7223
-109.231
-212.21
-400.525
-732.482
-1292.68
-2186.94
-3508.56
-5243.74
-7091.76
-8289.23
-0.02202
-0.0823707
-0.203019
-0.468734
-1.05744
-2.34119
-5.07863
-10.7691
-22.2745
-44.8524
-87.7555
-166.475
-305.402
-539.918
-915.318
-1477.32
-2245.93
-3165.63
-4042.42
-4531.45
-0.0179502
-0.0669381
-0.164094
-0.376243
-0.841873
-1.84644
-3.96232
-8.29824
-16.9197
-33.5095
-64.3128
-119.305
-213.258
-365.866
-599.278
-930.49
-1356.07
-1829.99
-2245.91
-2452.21
-0.0135236
-0.0502696
-0.12255
-0.278997
-0.619103
-1.34501
-2.85535
-5.90721
-11.8781
-23.1547
-43.6441
-79.3154
-138.507
-231.46
-368.2
-553.784
-780.543
-1019.3
-1216.05
-1304.64
-0.00949601
-0.0351843
-0.0852958
-0.192807
-0.424318
-0.913247
-1.91846
-3.92236
-7.78311
-14.948
-27.7092
-49.4255
-84.5381
-138.078
-214.27
-313.923
-430.829
-548.612
-641.043
-679.345
-0.00625405
-0.0230981
-0.0556871
-0.124998
-0.27287
-0.581974
-1.21025
-2.44674
-4.79488
-9.08256
-16.5812
-29.0832
-48.839
-78.203
-118.827
-170.348
-228.824
-285.709
-328.658
-345.191
-0.00388273
-0.0142952
-0.0342784
-0.0764197
-0.165521
-0.349955
-0.720773
-1.44182
-2.79288
-5.22337
-9.4042
-16.248
-26.8461
-42.2533
-63.0624
-88.7828
-117.195
-144.068
-163.736
-170.818
-0.00228172
-0.00837516
-0.019978
-0.0442464
-0.0951178
-0.199438
-0.407044
-0.806202
-1.5449
-2.85577
-5.07715
-8.65436
-14.0961
-21.8563
-32.1244
-44.5448
-57.9626
-70.3658
-79.2157
-82.2132
-0.00127366
-0.00466134
-0.0110633
-0.0243483
-0.0519683
-0.108109
-0.218765
-0.429298
-0.814485
-1.48957
-2.61818
-4.40926
-7.0914
-10.8529
-15.743
-21.5516
-27.7112
-33.299
-37.2026
-38.452
-0.000677346
-0.00247199
-0.00583888
-0.0127731
-0.0270776
-0.0559117
-0.112235
-0.218359
-0.410486
-0.743405
-1.29323
-2.15446
-3.42637
-5.18427
-7.43532
-10.0681
-12.8169
-15.2719
-16.9567
-17.4684
-0.000344088
-0.00125239
-0.00294461
-0.00640479
-0.0134901
-0.0276609
-0.0551099
-0.106364
-0.19826
-0.355858
-0.613276
-1.0118
-1.59318
-2.3865
-3.38915
-4.54641
-5.73897
-6.79015
-7.50071
-7.70618
-0.000167352
-0.000607564
-0.00142226
-0.00307677
-0.00644106
-0.0131203
-0.0259571
-0.0497267
-0.0919668
-0.163725
-0.279768
-0.457549
-0.714086
-1.06023
-1.49275
-1.98633
-2.48931
-2.92776
-3.2203
-3.30111
-7.80895e-05
-0.00028281
-0.000659292
-0.0014189
-0.00295332
-0.00597869
-0.0117507
-0.0223562
-0.0410487
-0.0725305
-0.122982
-0.19955
-0.308967
-0.455147
-0.635994
-0.840348
-1.0466
-1.22469
-1.34219
-1.37328
-3.50229e-05
-0.000126545
-0.000293845
-0.000629315
-0.00130276
-0.00262197
-0.00512175
-0.00968185
-0.0176587
-0.0309873
-0.0521723
-0.084051
-0.129212
-0.189017
-0.26236
-0.344529
-0.426776
-0.497211
-0.543223
-0.554923
-1.51229e-05
-5.45223e-05
-0.00012613
-0.00026888
-0.000553762
-0.00110842
-0.00215277
-0.00404517
-0.00733246
-0.0127855
-0.0213879
-0.0342333
-0.0522889
-0.0760129
-0.104883
-0.136984
-0.168883
-0.196007
-0.213573
-0.217875
-6.29633e-06
-2.26527e-05
-5.22206e-05
-0.000110836
-0.000227158
-0.000452343
-0.000873811
-0.0016328
-0.00294273
-0.00510121
-0.00848302
-0.0134977
-0.0204968
-0.0296288
-0.0406653
-0.0528557
-0.064893
-0.0750642
-0.0816006
-0.083146
-2.53246e-06
-9.08968e-06
-2.08829e-05
-4.41384e-05
-9.00442e-05
-0.000178438
-0.000342958
-0.000637513
-0.00114285
-0.00197041
-0.00325887
-0.00515729
-0.0077901
-0.0112036
-0.0153036
-0.0198057
-0.0242263
-0.027941
-0.0303119
-0.0308542
-9.83913e-07
-3.52603e-06
-8.0751e-06
-1.70028e-05
-3.45345e-05
-6.81235e-05
-0.000130312
-0.00024105
-0.000429978
-0.000737618
-0.00121382
-0.00191139
-0.0028732
-0.0041131
-0.00559417
-0.00721189
-0.00879243
-0.0101141
-0.0109524
-0.0111383
-3.71339e-07
-1.32544e-06
-3.02306e-06
-6.34174e-06
-1.28297e-05
-2.51989e-05
-4.79866e-05
-8.83586e-05
-0.000156882
-0.000267871
-0.000438759
-0.000687747
-0.00102923
-0.00146718
-0.00198771
-0.00255357
-0.00310395
-0.00356217
-0.00385123
-0.00391348
-1.35525e-07
-4.8247e-07
-1.09759e-06
-2.29512e-06
-4.62107e-06
-9.0392e-06
-1.71436e-05
-3.14298e-05
-5.55599e-05
-9.44576e-05
-0.00015405
-0.000240448
-0.00035837
-0.000508887
-0.000686973
-0.000879746
-0.00106649
-0.00122135
-0.00131856
-0.00133892
-4.74338e-08
-1.6856e-07
-3.85739e-07
-8.05528e-07
-1.61631e-06
-3.14944e-06
-5.94719e-06
-1.08588e-05
-1.9117e-05
-3.23687e-05
-5.25789e-05
-8.17468e-05
-0.000121377
-0.000171744
-0.000231091
-0.000295084
-0.00035685
-0.000407889
-0.000439778
-0.000446288
-1.76183e-08
-5.84453e-08
-1.30782e-07
-2.74608e-07
-5.49386e-07
-1.06658e-06
-2.00527e-06
-3.64699e-06
-6.39578e-06
-1.07871e-05
-1.74584e-05
-2.70456e-05
-4.00162e-05
-5.64371e-05
-7.57117e-05
-9.64203e-05
-0.000116344
-0.000132755
-0.000142965
-0.000144998
-5.75982e-09
-1.94818e-08
-4.31987e-08
-9.04631e-08
-1.81943e-07
-3.5101e-07
-6.57298e-07
-1.18974e-06
-2.08082e-06
-3.50011e-06
-5.64429e-06
-8.71258e-06
-1.28507e-05
-1.80694e-05
-2.41738e-05
-3.07102e-05
-3.6981e-05
-4.21311e-05
-4.53227e-05
-4.59437e-05
-2.87991e-09
-6.09864e-09
-1.40607e-08
-2.89685e-08
-5.74288e-08
-1.1418e-07
-2.10911e-07
-3.7693e-07
-6.5933e-07
-1.10589e-06
-1.77691e-06
-2.73541e-06
-4.02103e-06
-5.63971e-06
-7.52724e-06
-9.5403e-06
-1.14658e-05
-1.30452e-05
-1.40204e-05
-1.42042e-05
-1.35525e-09
-8.47033e-10
-3.38813e-09
-8.80914e-09
-1.71101e-08
-3.69306e-08
-6.58992e-08
-1.16552e-07
-2.03796e-07
-3.39999e-07
-5.44812e-07
-8.36191e-07
-1.22616e-06
-1.7166e-06
-2.28648e-06
-2.89397e-06
-3.46996e-06
-3.94277e-06
-4.235e-06
-4.28802e-06
6.77626e-10
2.20229e-09
6.77626e-10
-2.37169e-09
-5.59042e-09
-1.16891e-08
-1.98206e-08
-3.6253e-08
-6.18334e-08
-1.00966e-07
-1.61444e-07
-2.48011e-07
-3.64732e-07
-5.10083e-07
-6.77626e-07
-8.57197e-07
-1.0266e-06
-1.16365e-06
-1.24937e-06
-1.26648e-06
1.69407e-09
3.72694e-09
1.69407e-09
-1.69407e-09
-1.69407e-09
-2.37169e-09
-5.0822e-09
-1.0842e-08
-1.89735e-08
-2.84603e-08
-4.57398e-08
-7.13202e-08
-1.05201e-07
-1.48061e-07
-1.96003e-07
-2.48519e-07
-2.9697e-07
-3.35933e-07
-3.60328e-07
-3.66426e-07
1.69407e-09
3.38813e-09
1.52466e-09
-1.52466e-09
-1.01644e-09
-8.47033e-10
-1.52466e-09
-3.38813e-09
-4.57398e-09
-7.11508e-09
-1.25361e-08
-1.86347e-08
-2.87991e-08
-4.15046e-08
-5.59042e-08
-7.11508e-08
-8.31786e-08
-9.43595e-08
-1.02322e-07
-1.05201e-07
1.01644e-09
2.03288e-09
8.47033e-10
-1.69407e-09
-8.47033e-10
0
0
3.38813e-10
-8.47033e-10
-2.37169e-09
-3.04932e-09
-5.42101e-09
-7.96211e-09
-1.11808e-08
-1.43996e-08
-2.01594e-08
-2.25311e-08
-2.57498e-08
-2.87991e-08
-2.89685e-08
-3.38813e-10
8.47033e-10
1.18585e-09
-1.52466e-09
-5.0822e-10
8.47033e-10
5.0822e-10
1.18585e-09
-1.18585e-09
-8.47033e-10
-8.47033e-10
-1.69407e-09
-1.69407e-09
-2.5411e-09
-3.38813e-09
-5.42101e-09
-6.26804e-09
-7.28448e-09
-7.96211e-09
-7.45389e-09
3.38813e-10
1.18585e-09
1.01644e-09
0
0
-8.47033e-10
0
3.38813e-10
-5.0822e-10
1.69407e-10
1.52466e-09
0
-8.47033e-10
-3.38813e-10
-1.52466e-09
-1.86347e-09
-1.52466e-09
-2.71051e-09
-1.18585e-09
-2.03288e-09
-5.0822e-10
1.18585e-09
0
0
0
-2.03288e-09
3.38813e-10
1.69407e-09
-6.77626e-10
0
-1.69407e-10
-1.18585e-09
1.18585e-09
8.47033e-10
0
-6.77626e-10
1.18585e-09
5.0822e-10
-5.0822e-10
-2.5411e-09
-1.69407e-10
-1.35525e-09
1.69407e-09
1.35525e-09
-5.0822e-10
1.69407e-10
-1.01644e-09
1.69407e-10
1.86347e-09
5.0822e-10
0
-8.47033e-10
1.18585e-09
1.69407e-10
-5.0822e-10
0
-8.47033e-10
3.38813e-10
8.47033e-10
-1.52466e-09
-1.35525e-09
-2.20229e-09
-3.38813e-10
1.69407e-09
1.35525e-09
1.18585e-09
-5.0822e-10
5.0822e-10
1.18585e-09
8.47033e-10
5.0822e-10
-1.18585e-09
-5.0822e-10
0
-1.18585e-09
0
6.77626e-10
1.69407e-10
3.38813e-10
-1.69407e-09
-1.69407e-09
-6.77626e-10
0
8.47033e-10
1.69407e-09
1.52466e-09
5.0822e-10
-8.47033e-10
-1.18585e-09
1.52466e-09
1.69407e-09
-1.18585e-09
-8.47033e-10
8.47033e-10
-5.0822e-10
-6.77626e-10
1.69407e-09
-1.69407e-10
-8.47033e-10
-1.18585e-09
1.35525e-09
2.03288e-09
1.69407e-10
1.18585e-09
1.52466e-09
-6.77626e-10
-2.20229e-09
-6.77626e-10
6.77626e-10
1.35525e-09
1.18585e-09
-8.47033e-10
0
8.47033e-10
-8.47033e-10
-3.38813e-10
-8.47033e-10
-5.0822e-10
0
-3.38813e-10
1.18585e-09
2.37169e-09
1.35525e-09
5.0822e-10
3.38813e-10
-8.47033e-10
-1.69407e-09
-2.37169e-09
-1.69407e-10
1.86347e-09
2.03288e-09
8.47033e-10
1.18585e-09
-3.38813e-10
-1.69407e-09
-1.01644e-09
-6.77626e-10
8.47033e-10
0
-8.47033e-10
5.0822e-10
2.5411e-09
1.52466e-09
0
1.69407e-10
0
-5.0822e-10
-3.38813e-10
0
3.38813e-10
5.0822e-10
-5.0822e-10
-8.47033e-10
5.0822e-10
3.38813e-10
3.38813e-10
-1.18585e-09
1.69407e-10
3.38813e-10
-5.0822e-10
-5.0822e-10
-3.38813e-10
8.47033e-10
1.18585e-09
0
-1.35525e-09
-8.47033e-10
8.47033e-10
5.0822e-10
0
3.38813e-10
0
8.47033e-10
1.35525e-09
-1.69407e-09
-1.69407e-09
-5.0822e-10
0
0
5.0822e-10
-1.18585e-09
-1.18585e-09
6.77626e-10
1.69407e-10
0
6.77626e-10
-2.03288e-09
0
1.69407e-09
-3.38813e-10
-5.0822e-10
5.0822e-10
3.38813e-10
-3.38813e-10
-1.18585e-09
-1.69407e-10
1.69407e-10
-1.69407e-10
-3.38813e-10
8.47033e-10
-1.69407e-09
-1.18585e-09
0
-3.38813e-10
3.38813e-10
-6.77626e-10
-1.01644e-09
-3.38813e-10
8.47033e-10
5.0822e-10
6.77626e-10
-8.47033e-10
-3.38813e-10
5.0822e-10
-8.47033e-10
0
6.77626e-10
-8.47033e-10
5.0822e-10
3.38813e-10
)
;

boundaryField
{
    topWall
    {
        type            calculated;
        value           nonuniform List<scalar> 
20
(
-1.69407e-09
-1.18585e-09
0
-3.38813e-10
3.38813e-10
-6.77626e-10
-1.01644e-09
-3.38813e-10
8.47033e-10
5.0822e-10
6.77626e-10
-8.47033e-10
-3.38813e-10
5.0822e-10
-8.47033e-10
0
6.77626e-10
-8.47033e-10
5.0822e-10
3.38813e-10
)
;
    }
    bottomWall
    {
        type            calculated;
        value           nonuniform List<scalar> 
20
(
-0.00525466
-0.0198572
-0.0498182
-0.117702
-0.272961
-0.624295
-1.40717
-3.12317
-6.82488
-14.6969
-31.2526
-65.8643
-138.386
-292.654
-632.562
-1431.71
-3514.38
-9746.12
-31414
-116823
)
;
    }
    sideWallL
    {
        type            symmetry;
    }
    sideWallR
    {
        type            calculated;
        value           nonuniform List<scalar> 
45
(
-185278
-70481.8
-32073.1
-16209.6
-8597.02
-4627.7
-2482.47
-1313.62
-681.57
-345.448
-170.629
-82.0066
-38.3134
-17.3902
-7.6663
-3.28213
-1.36473
-0.551245
-0.216357
-0.0825428
-0.0306227
-0.0110524
-0.00388255
-0.00132812
-0.000442624
-0.000143788
-4.5556e-05
-1.40818e-05
-4.25018e-06
-1.25567e-06
-3.64366e-07
-1.05729e-07
-2.95586e-08
-7.38964e-09
-5.11591e-09
-4.54747e-09
-3.41061e-09
-4.54747e-09
-3.41061e-09
0
-1.7053e-09
-5.68434e-10
2.84217e-09
1.7053e-09
-1.7053e-09
)
;
    }
    frontAndBack
    {
        type            empty;
    }
}


// ************************************************************************* //
