/*--------------------------------*- C++ -*----------------------------------*\
  =========                 |
  \\      /  F ield         | OpenFOAM: The Open Source CFD Toolbox
   \\    /   O peration     | Website:  https://openfoam.org
    \\  /    A nd           | Version:  7
     \\/     M anipulation  |
\*---------------------------------------------------------------------------*/
FoamFile
{
    version     2.0;
    format      ascii;
    class       volScalarField;
    location    "4";
    object      gradTy;
}
// * * * * * * * * * * * * * * * * * * * * * * * * * * * * * * * * * * * * * //

dimensions      [0 -1 0 1 0 0 0];

internalField   nonuniform List<scalar> 
900
(
-62322.2
-62322.3
-62322.3
-62322.4
-62322.8
-62323.5
-62325.1
-62328.8
-62336.8
-62354.2
-62391.4
-62469.5
-62632
-62968.1
-63663.6
-65118.7
-68240.1
-75237.8
-92018.3
-136060
-45391.2
-45391.3
-45391.3
-45391.4
-45391.7
-45392.2
-45393.5
-45396.4
-45402.5
-45415.7
-45443.1
-45499.1
-45611
-45829.5
-46244.1
-46998.6
-48264.8
-49963.4
-50249.4
-38301.2
-32139.6
-32139.6
-32139.6
-32139.7
-32139.8
-32140.1
-32140.9
-32142.4
-32145.7
-32152.4
-32165.3
-32189.5
-32231.7
-32298.4
-32383.4
-32426.4
-32186.2
-30887.5
-26357.4
-13568
-22081.3
-22081.3
-22081.3
-22081.3
-22081.3
-22081.4
-22081.6
-22081.8
-22082.2
-22082.4
-22081.6
-22076.9
-22060
-22008.7
-21866.8
-21499.7
-20601.3
-18529.1
-14114.4
-5869.01
-14697.2
-14697.2
-14697.2
-14697.1
-14697.1
-14697
-14696.6
-14695.9
-14694
-14689.6
-14679.4
-14656.2
-14604.7
-14492.5
-14254
-13761.8
-12783.7
-10941.9
-7746.03
-2895.47
-9464.79
-9464.78
-9464.76
-9464.71
-9464.6
-9464.34
-9463.74
-9462.37
-9459.31
-9452.57
-9438.09
-9407.65
-9345.19
-9220.39
-8978.57
-8526.99
-7722.12
-6374.49
-4308.38
-1528.64
-5891.55
-5891.54
-5891.52
-5891.46
-5891.33
-5891.02
-5890.33
-5888.8
-5885.47
-5878.4
-5863.77
-5834.29
-5776.61
-5667.4
-5468.15
-5120.28
-4544.62
-3654.89
-2398.29
-828.518
-3542.34
-3542.33
-3542.31
-3542.25
-3542.13
-3541.84
-3541.19
-3539.79
-3536.82
-3530.66
-3518.26
-3494.05
-3448.38
-3365.33
-3220.59
-2980.33
-2604.02
-2055.09
-1322.64
-450.226
-2056.4
-2056.4
-2056.38
-2056.33
-2056.22
-2055.98
-2055.46
-2054.34
-2052
-2047.25
-2037.93
-2020.19
-1987.69
-1930.52
-1834.44
-1681.15
-1451
-1129.43
-717.409
-242.044
-1152.38
-1152.38
-1152.36
-1152.33
-1152.25
-1152.07
-1151.68
-1150.87
-1149.2
-1145.88
-1139.48
-1127.58
-1106.3
-1069.88
-1010.48
-918.676
-785.336
-605.042
-380.792
-127.735
-623.384
-623.38
-623.37
-623.345
-623.289
-623.167
-622.906
-622.364
-621.266
-619.114
-615.039
-607.61
-594.61
-572.867
-538.264
-486.164
-412.46
-315.303
-197.117
-65.8604
-325.576
-325.573
-325.566
-325.55
-325.514
-325.437
-325.273
-324.935
-324.26
-322.956
-320.526
-316.17
-308.687
-296.416
-277.287
-249.096
-210.056
-159.612
-99.287
-33.0788
-164.214
-164.213
-164.208
-164.199
-164.177
-164.131
-164.033
-163.836
-163.446
-162.701
-161.333
-158.917
-154.833
-148.248
-138.161
-123.559
-103.685
-78.4131
-48.5907
-16.1541
-80.0203
-80.0194
-80.0169
-80.0113
-79.999
-79.9728
-79.9185
-79.8091
-79.5956
-79.1929
-78.4619
-77.188
-75.0644
-71.6898
-66.5981
-59.3359
-49.5929
-37.3637
-23.0841
-7.66177
-37.6898
-37.6892
-37.6879
-37.6848
-37.6782
-37.6642
-37.6354
-37.5779
-37.4668
-37.2594
-36.8871
-36.2459
-35.1902
-33.5337
-31.0661
-27.5911
-22.9844
-17.2635
-10.6402
-3.52703
-17.1676
-17.1673
-17.1666
-17.1651
-17.1616
-17.1545
-17.14
-17.1112
-17.056
-16.9539
-16.7726
-16.4637
-15.9604
-15.1794
-14.029
-12.4263
-10.323
-7.73392
-4.7575
-1.57539
-7.56674
-7.56661
-7.56626
-7.56548
-7.56381
-7.56034
-7.55331
-7.5395
-7.51327
-7.4652
-7.38053
-7.2376
-7.00703
-6.65273
-6.13582
-5.42233
-4.49401
-3.3598
-2.06347
-0.682721
-3.22912
-3.22906
-3.22889
-3.22853
-3.22774
-3.22613
-3.22287
-3.21653
-3.20456
-3.18281
-3.14482
-3.08122
-2.9795
-2.82454
-2.60037
-2.29343
-1.897
-1.41571
-0.868315
-0.287093
-1.33509
-1.33506
-1.33499
-1.33482
-1.33447
-1.33374
-1.3323
-1.3295
-1.32425
-1.31478
-1.29836
-1.27109
-1.22781
-1.16238
-1.06842
-0.94068
-0.776748
-0.578798
-0.354601
-0.117175
-0.535139
-0.535127
-0.535094
-0.535022
-0.534869
-0.534558
-0.533939
-0.532748
-0.530532
-0.526558
-0.519717
-0.508429
-0.49064
-0.463931
-0.425831
-0.374352
-0.308653
-0.229694
-0.140587
-0.0464336
-0.208084
-0.208078
-0.208065
-0.208034
-0.207971
-0.207842
-0.207586
-0.207098
-0.206195
-0.204585
-0.201831
-0.197316
-0.190245
-0.179693
-0.164729
-0.144621
-0.119085
-0.0885208
-0.0541351
-0.0178726
-0.0785431
-0.078541
-0.0785354
-0.0785231
-0.0784976
-0.0784459
-0.0783443
-0.0781509
-0.0777952
-0.077165
-0.0760927
-0.0743449
-0.0716231
-0.067584
-0.0618867
-0.0542681
-0.0446346
-0.0331457
-0.0202557
-0.00668504
-0.028798
-0.0287971
-0.0287949
-0.0287902
-0.0287802
-0.0287602
-0.0287211
-0.0286471
-0.0285115
-0.0282727
-0.0278684
-0.0272129
-0.0261974
-0.0246981
-0.0225932
-0.0197909
-0.0162611
-0.0120649
-0.00736835
-0.00243106
-0.0102632
-0.0102628
-0.010262
-0.0102602
-0.0102565
-0.010249
-0.0102344
-0.0102069
-0.0101569
-0.0100692
-0.00992142
-0.009683
-0.00931542
-0.00877515
-0.00801998
-0.00701853
-0.0057615
-0.00427143
-0.00260721
-0.00085998
-0.00355749
-0.00355737
-0.00355707
-0.00355641
-0.00355505
-0.00355233
-0.00354707
-0.0035372
-0.00351929
-0.00348803
-0.00343562
-0.00335144
-0.00322222
-0.00303309
-0.00276977
-0.00242182
-0.00198644
-0.00147168
-0.000897842
-0.000296083
-0.00120012
-0.00120007
-0.00119997
-0.00119973
-0.00119925
-0.0011983
-0.00119645
-0.00119301
-0.00118678
-0.00117597
-0.00115792
-0.00112904
-0.00108488
-0.00102051
-0.000931208
-0.000813591
-0.000666834
-0.000493722
-0.000301077
-9.9267e-05
-0.000394265
-0.00039425
-0.000394213
-0.000394133
-0.000393968
-0.000393641
-0.000393015
-0.000391847
-0.000389745
-0.000386111
-0.000380064
-0.000370429
-0.000355754
-0.000334433
-0.000304956
-0.000266249
-0.000218076
-0.000161371
-9.83666e-05
-3.24266e-05
-0.000126212
-0.000126208
-0.000126194
-0.000126168
-0.000126112
-0.000126004
-0.000125798
-0.000125412
-0.000124724
-0.000123535
-0.000121564
-0.000118436
-0.000113687
-0.000106812
-9.73341e-05
-8.49245e-05
-6.95179e-05
-5.14141e-05
-3.13292e-05
-1.03265e-05
-3.93965e-05
-3.93928e-05
-3.93879e-05
-3.93782e-05
-3.93613e-05
-3.93262e-05
-3.92588e-05
-3.91355e-05
-3.89179e-05
-3.85381e-05
-3.79132e-05
-3.69227e-05
-3.54258e-05
-3.32662e-05
-3.02962e-05
-2.64169e-05
-2.16129e-05
-1.59774e-05
-9.73156e-06
-3.20653e-06
-1.19991e-05
-1.19964e-05
-1.19945e-05
-1.19911e-05
-1.19874e-05
-1.19759e-05
-1.19528e-05
-1.19144e-05
-1.18473e-05
-1.17295e-05
-1.15357e-05
-1.12305e-05
-1.07712e-05
-1.01093e-05
-9.20267e-06
-8.0192e-06
-6.55688e-06
-4.84604e-06
-2.95022e-06
-9.71377e-07
-3.56635e-06
-3.5655e-06
-3.56533e-06
-3.56499e-06
-3.56431e-06
-3.56008e-06
-3.55364e-06
-3.54229e-06
-3.52078e-06
-3.48452e-06
-3.4271e-06
-3.33528e-06
-3.19806e-06
-2.99951e-06
-2.72897e-06
-2.37779e-06
-1.94326e-06
-1.43437e-06
-8.73969e-07
-2.87314e-07
-1.03372e-06
-1.03423e-06
-1.03507e-06
-1.03507e-06
-1.0349e-06
-1.03457e-06
-1.03219e-06
-1.02931e-06
-1.02118e-06
-1.01153e-06
-9.94755e-07
-9.69006e-07
-9.28687e-07
-8.71766e-07
-7.91806e-07
-6.89654e-07
-5.63785e-07
-4.15554e-07
-2.53602e-07
-8.38563e-08
-2.9121e-07
-2.93243e-07
-2.93582e-07
-2.93243e-07
-2.93582e-07
-2.92735e-07
-2.92396e-07
-2.90871e-07
-2.87991e-07
-2.86805e-07
-2.81723e-07
-2.75286e-07
-2.64613e-07
-2.48689e-07
-2.2565e-07
-1.96173e-07
-1.5975e-07
-1.19093e-07
-7.30142e-08
-2.47334e-08
-8.04681e-08
-8.09763e-08
-8.1654e-08
-8.08069e-08
-7.97905e-08
-7.97905e-08
-8.08069e-08
-7.96211e-08
-8.09763e-08
-7.92823e-08
-7.84353e-08
-7.50471e-08
-7.28448e-08
-6.75932e-08
-6.20028e-08
-5.48877e-08
-4.38763e-08
-3.35425e-08
-2.10064e-08
-5.92923e-09
-2.13452e-08
-2.1684e-08
-2.11758e-08
-2.27005e-08
-2.03288e-08
-2.25311e-08
-2.27005e-08
-2.20229e-08
-2.25311e-08
-2.15146e-08
-2.13452e-08
-2.1684e-08
-2.04982e-08
-1.84653e-08
-1.72795e-08
-1.50772e-08
-1.25361e-08
-7.6233e-09
-4.57398e-09
-6.77626e-10
-5.0822e-09
-5.92923e-09
-7.45389e-09
-5.42101e-09
-6.26804e-09
-5.42101e-09
-5.0822e-09
-7.11508e-09
-5.0822e-09
-4.57398e-09
-5.42101e-09
-5.42101e-09
-5.92923e-09
-4.06576e-09
-5.42101e-09
-3.72694e-09
-3.04932e-09
-2.5411e-09
0
-5.0822e-10
-6.77626e-10
-1.18585e-09
-3.72694e-09
-1.35525e-09
-2.20229e-09
0
1.01644e-09
-8.47033e-10
0
1.69407e-10
8.47033e-10
1.69407e-09
5.0822e-10
3.38813e-10
-3.38813e-10
-5.0822e-10
-3.38813e-10
-1.18585e-09
-5.0822e-10
0
6.77626e-10
-8.47033e-10
8.47033e-10
-2.37169e-09
0
3.38813e-10
8.47033e-10
1.86347e-09
3.38813e-10
-1.01644e-09
1.18585e-09
6.77626e-10
3.38813e-10
-1.18585e-09
8.47033e-10
-8.47033e-10
6.77626e-10
2.03288e-09
-3.38813e-10
0
-1.69407e-09
8.47033e-10
2.03288e-09
1.69407e-09
2.03288e-09
1.35525e-09
0
-1.69407e-10
-1.18585e-09
-3.38813e-10
-5.0822e-10
0
0
5.0822e-10
5.0822e-10
5.0822e-10
1.69407e-10
-8.47033e-10
-3.38813e-10
-1.18585e-09
-1.18585e-09
1.69407e-09
2.20229e-09
3.21873e-09
2.03288e-09
1.52466e-09
0
-1.18585e-09
-1.69407e-09
-5.0822e-10
-1.18585e-09
-6.77626e-10
1.35525e-09
1.52466e-09
3.38813e-10
8.47033e-10
-8.47033e-10
-1.69407e-09
3.38813e-10
-3.38813e-10
-3.38813e-10
-8.47033e-10
6.77626e-10
-3.38813e-10
-8.47033e-10
-1.18585e-09
-1.69407e-10
8.47033e-10
3.38813e-10
1.69407e-10
-8.47033e-10
-1.69407e-10
-8.47033e-10
-1.18585e-09
-1.35525e-09
-1.69407e-10
-1.69407e-10
-6.77626e-10
3.38813e-10
0
1.69407e-09
-3.38813e-10
-1.18585e-09
-5.0822e-10
0
-1.18585e-09
-6.77626e-10
0
2.03288e-09
1.18585e-09
0
-3.38813e-10
-1.01644e-09
-5.0822e-10
1.01644e-09
-6.77626e-10
1.69407e-10
-8.47033e-10
-3.38813e-10
-1.01644e-09
3.21873e-09
1.18585e-09
-5.0822e-10
0
-6.77626e-10
0
0
-1.69407e-09
5.0822e-10
0
0
-8.47033e-10
8.47033e-10
1.69407e-10
-1.69407e-10
-1.01644e-09
-5.0822e-10
3.38813e-10
-1.18585e-09
-6.77626e-10
1.35525e-09
6.77626e-10
5.0822e-10
-6.77626e-10
-8.47033e-10
0
3.38813e-10
-3.38813e-10
-1.18585e-09
-3.38813e-10
-5.0822e-10
0
-8.47033e-10
-1.35525e-09
-1.52466e-09
-6.77626e-10
-3.38813e-10
8.47033e-10
-1.01644e-09
1.18585e-09
6.77626e-10
0
5.0822e-10
-1.69407e-10
0
-1.69407e-10
-8.47033e-10
6.77626e-10
-1.18585e-09
-1.69407e-10
0
3.38813e-10
-1.18585e-09
-8.47033e-10
0
-1.69407e-10
3.38813e-10
0
-3.38813e-10
8.47033e-10
)
;

boundaryField
{
    topWall
    {
        type            calculated;
        value           uniform 0;
    }
    bottomWall
    {
        type            calculated;
        value           nonuniform List<scalar> 
20
(
-71765.4
-71765.4
-71765.5
-71765.6
-71765.9
-71766.7
-71768.4
-71772.3
-71780.9
-71799.6
-71839.7
-71924.6
-72103.2
-72478.2
-73273.8
-75008.4
-79000.6
-89065.9
-117985
-214722
)
;
    }
    sideWallL
    {
        type            symmetry;
    }
    sideWallR
    {
        type            calculated;
        value           nonuniform List<scalar> 
45
(
-136060
-38301.2
-13568
-5869.01
-2895.47
-1528.64
-828.518
-450.226
-242.044
-127.735
-65.8604
-33.0788
-16.1541
-7.66177
-3.52703
-1.57539
-0.682721
-0.287093
-0.117175
-0.0464336
-0.0178726
-0.00668504
-0.00243106
-0.00085998
-0.000296083
-9.9267e-05
-3.24266e-05
-1.03265e-05
-3.20653e-06
-9.71377e-07
-2.87314e-07
-8.38563e-08
-2.47334e-08
-5.92923e-09
-6.77626e-10
-5.0822e-10
0
0
-1.18585e-09
-3.38813e-10
0
-1.01644e-09
-6.77626e-10
1.18585e-09
8.47033e-10
)
;
    }
    frontAndBack
    {
        type            empty;
    }
}


// ************************************************************************* //
