/*--------------------------------*- C++ -*----------------------------------*\
  =========                 |
  \\      /  F ield         | OpenFOAM: The Open Source CFD Toolbox
   \\    /   O peration     | Website:  https://openfoam.org
    \\  /    A nd           | Version:  7
     \\/     M anipulation  |
\*---------------------------------------------------------------------------*/
FoamFile
{
    version     2.0;
    format      ascii;
    class       volScalarField;
    location    "4";
    object      rhoc;
}
// * * * * * * * * * * * * * * * * * * * * * * * * * * * * * * * * * * * * * //

dimensions      [1 -3 0 0 0 0 0];

internalField   nonuniform List<scalar> 
900
(
1.59018e-27
1.59018e-27
1.59017e-27
1.59017e-27
1.59016e-27
1.59015e-27
1.5901e-27
1.59e-27
1.58976e-27
1.58921e-27
1.58798e-27
1.58524e-27
1.57919e-27
1.56593e-27
1.53684e-27
1.47247e-27
1.32883e-27
1.01612e-27
4.59986e-28
3.19169e-29
6.1537e-29
6.15369e-29
6.15368e-29
6.15365e-29
6.15358e-29
6.15339e-29
6.15295e-29
6.15192e-29
6.14953e-29
6.14406e-29
6.13179e-29
6.10471e-29
6.0459e-29
5.92047e-29
5.65914e-29
5.13527e-29
4.16344e-29
2.64238e-29
1.00022e-29
1.51875e-30
6.63927e-30
6.63927e-30
6.63925e-30
6.63921e-30
6.63911e-30
6.63887e-30
6.63829e-30
6.63694e-30
6.63382e-30
6.62673e-30
6.61096e-30
6.5766e-30
6.5034e-30
6.35172e-30
6.0491e-30
5.47985e-30
4.5108e-30
3.12553e-30
1.65033e-30
6.40371e-31
1.71536e-30
1.71535e-30
1.71535e-30
1.71534e-30
1.71532e-30
1.71526e-30
1.71513e-30
1.71483e-30
1.71412e-30
1.71254e-30
1.70907e-30
1.70162e-30
1.68607e-30
1.65469e-30
1.59407e-30
1.48412e-30
1.30257e-30
1.04256e-30
7.39708e-31
4.71284e-31
8.15545e-31
8.15545e-31
8.15544e-31
8.1554e-31
8.15532e-31
8.15512e-31
8.15466e-31
8.15358e-31
8.15113e-31
8.14569e-31
8.1339e-31
8.10905e-31
8.05828e-31
7.95832e-31
7.77047e-31
7.43842e-31
6.89858e-31
6.11611e-31
5.14343e-31
4.14831e-31
5.53456e-31
5.53455e-31
5.53455e-31
5.53453e-31
5.53449e-31
5.5344e-31
5.53418e-31
5.53368e-31
5.53255e-31
5.53009e-31
5.52484e-31
5.51398e-31
5.49229e-31
5.45064e-31
5.37441e-31
5.24296e-31
5.03293e-31
4.72873e-31
4.33993e-31
3.91463e-31
4.53747e-31
4.53747e-31
4.53746e-31
4.53746e-31
4.53743e-31
4.53738e-31
4.53726e-31
4.53699e-31
4.5364e-31
4.53511e-31
4.53242e-31
4.52696e-31
4.51629e-31
4.49632e-31
4.46071e-31
4.40087e-31
4.30728e-31
4.17335e-31
4.00152e-31
3.80857e-31
4.10135e-31
4.10135e-31
4.10135e-31
4.10135e-31
4.10133e-31
4.1013e-31
4.10123e-31
4.10108e-31
4.10074e-31
4.10003e-31
4.09857e-31
4.09565e-31
4.09009e-31
4.07992e-31
4.06226e-31
4.03333e-31
3.98912e-31
3.92699e-31
3.84794e-31
3.75864e-31
3.89773e-31
3.89773e-31
3.89773e-31
3.89773e-31
3.89772e-31
3.8977e-31
3.89766e-31
3.89757e-31
3.89738e-31
3.89698e-31
3.89618e-31
3.89461e-31
3.89167e-31
3.88643e-31
3.87754e-31
3.86333e-31
3.84213e-31
3.8129e-31
3.77622e-31
3.73491e-31
3.80045e-31
3.80045e-31
3.80045e-31
3.80045e-31
3.80044e-31
3.80043e-31
3.80041e-31
3.80036e-31
3.80025e-31
3.80003e-31
3.79959e-31
3.79876e-31
3.79723e-31
3.79456e-31
3.79014e-31
3.78322e-31
3.77312e-31
3.75947e-31
3.74259e-31
3.72371e-31
3.75401e-31
3.75401e-31
3.75401e-31
3.75401e-31
3.75401e-31
3.754e-31
3.75399e-31
3.75396e-31
3.7539e-31
3.75379e-31
3.75356e-31
3.75313e-31
3.75235e-31
3.75103e-31
3.74888e-31
3.74558e-31
3.74086e-31
3.7346e-31
3.72696e-31
3.71849e-31
3.73217e-31
3.73217e-31
3.73217e-31
3.73217e-31
3.73217e-31
3.73216e-31
3.73216e-31
3.73214e-31
3.73211e-31
3.73205e-31
3.73193e-31
3.73172e-31
3.73134e-31
3.7307e-31
3.72969e-31
3.72816e-31
3.72601e-31
3.72321e-31
3.71983e-31
3.71611e-31
3.72211e-31
3.72211e-31
3.72211e-31
3.72211e-31
3.72211e-31
3.72211e-31
3.72211e-31
3.7221e-31
3.72209e-31
3.72206e-31
3.722e-31
3.7219e-31
3.72172e-31
3.72142e-31
3.72096e-31
3.72027e-31
3.71932e-31
3.7181e-31
3.71664e-31
3.71504e-31
3.71761e-31
3.71761e-31
3.71761e-31
3.71761e-31
3.71761e-31
3.71761e-31
3.7176e-31
3.7176e-31
3.71759e-31
3.71758e-31
3.71755e-31
3.71751e-31
3.71742e-31
3.71729e-31
3.71709e-31
3.71679e-31
3.71638e-31
3.71586e-31
3.71525e-31
3.71458e-31
3.71564e-31
3.71564e-31
3.71564e-31
3.71564e-31
3.71564e-31
3.71564e-31
3.71564e-31
3.71564e-31
3.71564e-31
3.71563e-31
3.71562e-31
3.7156e-31
3.71556e-31
3.7155e-31
3.71542e-31
3.71529e-31
3.71512e-31
3.7149e-31
3.71465e-31
3.71438e-31
3.71481e-31
3.71481e-31
3.71481e-31
3.71481e-31
3.71481e-31
3.71481e-31
3.71481e-31
3.71481e-31
3.71481e-31
3.7148e-31
3.7148e-31
3.71479e-31
3.71478e-31
3.71475e-31
3.71471e-31
3.71466e-31
3.71459e-31
3.71451e-31
3.71441e-31
3.7143e-31
3.71447e-31
3.71447e-31
3.71447e-31
3.71447e-31
3.71447e-31
3.71447e-31
3.71447e-31
3.71447e-31
3.71447e-31
3.71447e-31
3.71446e-31
3.71446e-31
3.71445e-31
3.71444e-31
3.71443e-31
3.71441e-31
3.71438e-31
3.71435e-31
3.71431e-31
3.71427e-31
3.71433e-31
3.71433e-31
3.71433e-31
3.71433e-31
3.71433e-31
3.71433e-31
3.71433e-31
3.71433e-31
3.71433e-31
3.71433e-31
3.71433e-31
3.71433e-31
3.71432e-31
3.71432e-31
3.71432e-31
3.71431e-31
3.7143e-31
3.71428e-31
3.71427e-31
3.71425e-31
3.71428e-31
3.71428e-31
3.71428e-31
3.71428e-31
3.71428e-31
3.71428e-31
3.71428e-31
3.71428e-31
3.71428e-31
3.71428e-31
3.71428e-31
3.71428e-31
3.71428e-31
3.71427e-31
3.71427e-31
3.71427e-31
3.71426e-31
3.71426e-31
3.71425e-31
3.71425e-31
3.71426e-31
3.71426e-31
3.71426e-31
3.71426e-31
3.71426e-31
3.71426e-31
3.71426e-31
3.71426e-31
3.71426e-31
3.71426e-31
3.71426e-31
3.71426e-31
3.71426e-31
3.71426e-31
3.71426e-31
3.71425e-31
3.71425e-31
3.71425e-31
3.71425e-31
3.71425e-31
3.71425e-31
3.71425e-31
3.71425e-31
3.71425e-31
3.71425e-31
3.71425e-31
3.71425e-31
3.71425e-31
3.71425e-31
3.71425e-31
3.71425e-31
3.71425e-31
3.71425e-31
3.71425e-31
3.71425e-31
3.71425e-31
3.71425e-31
3.71425e-31
3.71425e-31
3.71425e-31
3.71425e-31
3.71425e-31
3.71425e-31
3.71425e-31
3.71425e-31
3.71425e-31
3.71425e-31
3.71425e-31
3.71425e-31
3.71425e-31
3.71425e-31
3.71425e-31
3.71425e-31
3.71425e-31
3.71425e-31
3.71425e-31
3.71425e-31
3.71425e-31
3.71425e-31
3.71425e-31
3.71425e-31
3.71425e-31
3.71425e-31
3.71425e-31
3.71425e-31
3.71425e-31
3.71425e-31
3.71425e-31
3.71425e-31
3.71425e-31
3.71425e-31
3.71425e-31
3.71425e-31
3.71425e-31
3.71425e-31
3.71425e-31
3.71425e-31
3.71425e-31
3.71425e-31
3.71425e-31
3.71425e-31
3.71425e-31
3.71425e-31
3.71425e-31
3.71425e-31
3.71425e-31
3.71425e-31
3.71425e-31
3.71425e-31
3.71425e-31
3.71425e-31
3.71425e-31
3.71425e-31
3.71425e-31
3.71425e-31
3.71425e-31
3.71425e-31
3.71425e-31
3.71425e-31
3.71425e-31
3.71425e-31
3.71425e-31
3.71425e-31
3.71425e-31
3.71425e-31
3.71425e-31
3.71425e-31
3.71425e-31
3.71425e-31
3.71425e-31
3.71425e-31
3.71425e-31
3.71425e-31
3.71425e-31
3.71425e-31
3.71425e-31
3.71425e-31
3.71425e-31
3.71425e-31
3.71425e-31
3.71425e-31
3.71425e-31
3.71425e-31
3.71425e-31
3.71425e-31
3.71425e-31
3.71425e-31
3.71425e-31
3.71425e-31
3.71425e-31
3.71425e-31
3.71425e-31
3.71425e-31
3.71425e-31
3.71425e-31
3.71425e-31
3.71425e-31
3.71425e-31
3.71425e-31
3.71425e-31
3.71425e-31
3.71425e-31
3.71425e-31
3.71425e-31
3.71425e-31
3.71425e-31
3.71425e-31
3.71425e-31
3.71425e-31
3.71425e-31
3.71425e-31
3.71425e-31
3.71425e-31
3.71425e-31
3.71425e-31
3.71425e-31
3.71425e-31
3.71425e-31
3.71425e-31
3.71425e-31
3.71425e-31
3.71425e-31
3.71425e-31
3.71425e-31
3.71425e-31
3.71425e-31
3.71425e-31
3.71425e-31
3.71425e-31
3.71425e-31
3.71425e-31
3.71425e-31
3.71425e-31
3.71425e-31
3.71425e-31
3.71425e-31
3.71425e-31
3.71425e-31
3.71425e-31
3.71425e-31
3.71425e-31
3.71425e-31
3.71425e-31
3.71425e-31
3.71425e-31
3.71425e-31
3.71425e-31
3.71425e-31
3.71425e-31
3.71425e-31
3.71425e-31
3.71425e-31
3.71425e-31
3.71425e-31
3.71425e-31
3.71425e-31
3.71425e-31
3.71425e-31
3.71425e-31
3.71425e-31
3.71425e-31
3.71425e-31
3.71425e-31
3.71425e-31
3.71425e-31
3.71425e-31
3.71425e-31
3.71425e-31
3.71425e-31
3.71425e-31
3.71425e-31
3.71425e-31
3.71425e-31
3.71425e-31
3.71425e-31
3.71425e-31
3.71425e-31
3.71425e-31
3.71425e-31
3.71425e-31
3.71425e-31
3.71425e-31
3.71425e-31
3.71425e-31
3.71425e-31
3.71425e-31
3.71425e-31
3.71425e-31
3.71425e-31
3.71425e-31
3.71425e-31
3.71425e-31
3.71425e-31
3.71425e-31
3.71425e-31
3.71425e-31
3.71425e-31
3.71425e-31
3.71425e-31
3.71425e-31
3.71425e-31
3.71425e-31
3.71425e-31
3.71425e-31
3.71425e-31
3.71425e-31
3.71425e-31
3.71425e-31
3.71425e-31
3.71425e-31
3.71425e-31
3.71425e-31
3.71425e-31
3.71425e-31
3.71425e-31
3.71425e-31
3.71425e-31
3.71425e-31
3.71425e-31
3.71425e-31
3.71425e-31
3.71425e-31
3.71425e-31
3.71425e-31
3.71425e-31
3.71425e-31
3.71425e-31
3.71425e-31
3.71425e-31
3.71425e-31
3.71425e-31
3.71425e-31
3.71425e-31
3.71425e-31
3.71425e-31
3.71425e-31
3.71425e-31
3.71425e-31
3.71425e-31
3.71425e-31
3.71425e-31
3.71425e-31
3.71425e-31
3.71425e-31
3.71425e-31
3.71425e-31
3.71425e-31
3.71425e-31
3.71425e-31
3.71425e-31
3.71425e-31
3.71425e-31
3.71425e-31
3.71425e-31
3.71425e-31
3.71425e-31
3.71425e-31
3.71425e-31
3.71425e-31
3.71425e-31
3.71425e-31
3.71425e-31
3.71425e-31
3.71425e-31
3.71425e-31
3.71425e-31
3.71425e-31
3.71425e-31
3.71425e-31
3.71425e-31
3.71425e-31
3.71425e-31
3.71425e-31
3.71425e-31
3.71425e-31
3.71425e-31
3.71425e-31
3.71425e-31
3.71425e-31
3.71425e-31
3.71425e-31
3.71425e-31
3.71425e-31
3.71425e-31
3.71425e-31
3.71425e-31
3.71425e-31
3.71425e-31
3.71425e-31
3.71425e-31
3.71425e-31
3.71425e-31
3.71425e-31
3.71425e-31
3.71425e-31
3.71425e-31
3.71425e-31
3.71425e-31
3.71425e-31
3.71425e-31
3.71425e-31
3.71425e-31
3.71425e-31
3.71425e-31
3.71425e-31
3.71425e-31
3.71425e-31
3.71425e-31
3.71425e-31
3.71425e-31
3.71425e-31
3.71425e-31
3.71425e-31
3.71425e-31
3.71425e-31
3.71425e-31
3.71425e-31
3.71425e-31
3.71425e-31
3.71425e-31
3.71425e-31
3.71425e-31
3.71425e-31
3.71425e-31
3.71425e-31
3.71425e-31
3.71425e-31
3.71425e-31
3.71425e-31
3.71425e-31
3.71425e-31
3.71425e-31
3.71425e-31
3.71425e-31
3.71425e-31
3.71425e-31
3.71425e-31
3.71425e-31
3.71425e-31
3.71425e-31
3.71425e-31
3.71425e-31
3.71425e-31
3.71425e-31
3.71425e-31
3.71425e-31
3.71425e-31
3.71425e-31
3.71425e-31
3.71425e-31
3.71425e-31
3.71425e-31
3.71425e-31
3.71425e-31
3.71425e-31
3.71425e-31
3.71425e-31
3.71425e-31
3.71425e-31
3.71425e-31
3.71425e-31
3.71425e-31
3.71425e-31
3.71425e-31
3.71425e-31
3.71425e-31
3.71425e-31
3.71425e-31
3.71425e-31
3.71425e-31
3.71425e-31
3.71425e-31
3.71425e-31
3.71425e-31
3.71425e-31
3.71425e-31
3.71425e-31
3.71425e-31
3.71425e-31
3.71425e-31
3.71425e-31
3.71425e-31
3.71425e-31
3.71425e-31
3.71425e-31
3.71425e-31
3.71425e-31
3.71425e-31
3.71425e-31
3.71425e-31
3.71425e-31
3.71425e-31
3.71425e-31
3.71425e-31
3.71425e-31
3.71425e-31
3.71425e-31
3.71425e-31
3.71425e-31
3.71425e-31
3.71425e-31
3.71425e-31
3.71425e-31
3.71425e-31
3.71425e-31
3.71425e-31
3.71425e-31
3.71425e-31
3.71425e-31
3.71425e-31
3.71425e-31
3.71425e-31
3.71425e-31
3.71425e-31
3.71425e-31
3.71425e-31
3.71425e-31
3.71425e-31
3.71425e-31
3.71425e-31
3.71425e-31
3.71425e-31
3.71425e-31
3.71425e-31
3.71425e-31
3.71425e-31
3.71425e-31
3.71425e-31
3.71425e-31
3.71425e-31
3.71425e-31
3.71425e-31
3.71425e-31
3.71425e-31
3.71425e-31
3.71425e-31
3.71425e-31
3.71425e-31
3.71425e-31
3.71425e-31
3.71425e-31
3.71425e-31
3.71425e-31
3.71425e-31
3.71425e-31
3.71425e-31
3.71425e-31
3.71425e-31
3.71425e-31
3.71425e-31
3.71425e-31
3.71425e-31
3.71425e-31
3.71425e-31
3.71425e-31
3.71425e-31
3.71425e-31
3.71425e-31
3.71425e-31
3.71425e-31
3.71425e-31
3.71425e-31
3.71425e-31
3.71425e-31
3.71425e-31
3.71425e-31
3.71425e-31
3.71425e-31
3.71425e-31
3.71425e-31
3.71425e-31
3.71425e-31
3.71425e-31
3.71425e-31
3.71425e-31
3.71425e-31
3.71425e-31
3.71425e-31
3.71425e-31
3.71425e-31
)
;

boundaryField
{
    topWall
    {
        type            zeroGradient;
    }
    bottomWall
    {
        type            zeroGradient;
    }
    sideWallL
    {
        type            symmetry;
    }
    sideWallR
    {
        type            zeroGradient;
    }
    frontAndBack
    {
        type            empty;
    }
}


// ************************************************************************* //
