/*--------------------------------*- C++ -*----------------------------------*\
  =========                 |
  \\      /  F ield         | OpenFOAM: The Open Source CFD Toolbox
   \\    /   O peration     | Website:  https://openfoam.org
    \\  /    A nd           | Version:  7
     \\/     M anipulation  |
\*---------------------------------------------------------------------------*/
FoamFile
{
    version     2.0;
    format      ascii;
    class       volScalarField;
    location    "4";
    object      rhog;
}
// * * * * * * * * * * * * * * * * * * * * * * * * * * * * * * * * * * * * * //

dimensions      [1 -3 0 0 0 0 0];

internalField   nonuniform List<scalar> 
900
(
1.97721e-14
1.97721e-14
1.97721e-14
1.9772e-14
1.9772e-14
1.97718e-14
1.97715e-14
1.97706e-14
1.97687e-14
1.97643e-14
1.97544e-14
1.97325e-14
1.96845e-14
1.95799e-14
1.93508e-14
1.88416e-14
1.76808e-14
1.49855e-14
9.2037e-15
1.76583e-15
2.75672e-15
2.75672e-15
2.75672e-15
2.75671e-15
2.75669e-15
2.75663e-15
2.7565e-15
2.75618e-15
2.75547e-15
2.75384e-15
2.75021e-15
2.74224e-15
2.72503e-15
2.68841e-15
2.61174e-15
2.45511e-15
2.14967e-15
1.61321e-15
8.72556e-16
2.61729e-16
6.94556e-16
6.94556e-16
6.94555e-16
6.94552e-16
6.94544e-16
6.94527e-16
6.94484e-16
6.94386e-16
6.9416e-16
6.9365e-16
6.92524e-16
6.90086e-16
6.84918e-16
6.74231e-16
6.52805e-16
6.11751e-16
5.38664e-16
4.2407e-16
2.79654e-16
1.51043e-16
2.9269e-16
2.9269e-16
2.9269e-16
2.92689e-16
2.92686e-16
2.92679e-16
2.92663e-16
2.92625e-16
2.9254e-16
2.92349e-16
2.91933e-16
2.91045e-16
2.89202e-16
2.85494e-16
2.78324e-16
2.65186e-16
2.42926e-16
2.09371e-16
1.66778e-16
1.24149e-16
1.79686e-16
1.79686e-16
1.79686e-16
1.79685e-16
1.79684e-16
1.79681e-16
1.79673e-16
1.79656e-16
1.79617e-16
1.79532e-16
1.79348e-16
1.78961e-16
1.78177e-16
1.76638e-16
1.73753e-16
1.68638e-16
1.60235e-16
1.47779e-16
1.31705e-16
1.14383e-16
1.38855e-16
1.38855e-16
1.38854e-16
1.38854e-16
1.38853e-16
1.38852e-16
1.38848e-16
1.38839e-16
1.38819e-16
1.38775e-16
1.38682e-16
1.38492e-16
1.38113e-16
1.37388e-16
1.36065e-16
1.33787e-16
1.30138e-16
1.24811e-16
1.17902e-16
1.10186e-16
1.21639e-16
1.21639e-16
1.21639e-16
1.21639e-16
1.21638e-16
1.21637e-16
1.21635e-16
1.2163e-16
1.21619e-16
1.21595e-16
1.21545e-16
1.21443e-16
1.21247e-16
1.20879e-16
1.20227e-16
1.19133e-16
1.17424e-16
1.14974e-16
1.11816e-16
1.08242e-16
1.13731e-16
1.13731e-16
1.13731e-16
1.13731e-16
1.13731e-16
1.13731e-16
1.13729e-16
1.13726e-16
1.1372e-16
1.13706e-16
1.13678e-16
1.13623e-16
1.13518e-16
1.13327e-16
1.12995e-16
1.12453e-16
1.11627e-16
1.10466e-16
1.08989e-16
1.07316e-16
1.0995e-16
1.0995e-16
1.0995e-16
1.0995e-16
1.0995e-16
1.0995e-16
1.09949e-16
1.09947e-16
1.09943e-16
1.09936e-16
1.0992e-16
1.0989e-16
1.09834e-16
1.09734e-16
1.09566e-16
1.09296e-16
1.08895e-16
1.08344e-16
1.07652e-16
1.06873e-16
1.08121e-16
1.08121e-16
1.08121e-16
1.08121e-16
1.08121e-16
1.0812e-16
1.0812e-16
1.08119e-16
1.08117e-16
1.08113e-16
1.08104e-16
1.08088e-16
1.08059e-16
1.08008e-16
1.07923e-16
1.07792e-16
1.07599e-16
1.0734e-16
1.0702e-16
1.06662e-16
1.07241e-16
1.07241e-16
1.07241e-16
1.07241e-16
1.07241e-16
1.07241e-16
1.07241e-16
1.0724e-16
1.07239e-16
1.07237e-16
1.07233e-16
1.07224e-16
1.07209e-16
1.07184e-16
1.07143e-16
1.0708e-16
1.06989e-16
1.0687e-16
1.06725e-16
1.06563e-16
1.06826e-16
1.06826e-16
1.06826e-16
1.06826e-16
1.06825e-16
1.06825e-16
1.06825e-16
1.06825e-16
1.06824e-16
1.06823e-16
1.06821e-16
1.06817e-16
1.0681e-16
1.06797e-16
1.06778e-16
1.06749e-16
1.06707e-16
1.06654e-16
1.06589e-16
1.06518e-16
1.06634e-16
1.06633e-16
1.06633e-16
1.06633e-16
1.06633e-16
1.06633e-16
1.06633e-16
1.06633e-16
1.06633e-16
1.06632e-16
1.06631e-16
1.06629e-16
1.06626e-16
1.0662e-16
1.06611e-16
1.06598e-16
1.0658e-16
1.06556e-16
1.06528e-16
1.06498e-16
1.06547e-16
1.06547e-16
1.06547e-16
1.06547e-16
1.06547e-16
1.06547e-16
1.06547e-16
1.06547e-16
1.06547e-16
1.06547e-16
1.06546e-16
1.06545e-16
1.06544e-16
1.06541e-16
1.06537e-16
1.06531e-16
1.06523e-16
1.06513e-16
1.06502e-16
1.06489e-16
1.06509e-16
1.06509e-16
1.06509e-16
1.06509e-16
1.06509e-16
1.06509e-16
1.06509e-16
1.06509e-16
1.06509e-16
1.06509e-16
1.06509e-16
1.06508e-16
1.06508e-16
1.06507e-16
1.06505e-16
1.06503e-16
1.06499e-16
1.06495e-16
1.0649e-16
1.06485e-16
1.06493e-16
1.06493e-16
1.06493e-16
1.06493e-16
1.06493e-16
1.06493e-16
1.06493e-16
1.06493e-16
1.06493e-16
1.06493e-16
1.06493e-16
1.06493e-16
1.06493e-16
1.06492e-16
1.06491e-16
1.0649e-16
1.06489e-16
1.06487e-16
1.06486e-16
1.06483e-16
1.06487e-16
1.06487e-16
1.06487e-16
1.06487e-16
1.06487e-16
1.06487e-16
1.06487e-16
1.06487e-16
1.06487e-16
1.06487e-16
1.06487e-16
1.06487e-16
1.06486e-16
1.06486e-16
1.06486e-16
1.06486e-16
1.06485e-16
1.06484e-16
1.06484e-16
1.06483e-16
1.06484e-16
1.06484e-16
1.06484e-16
1.06484e-16
1.06484e-16
1.06484e-16
1.06484e-16
1.06484e-16
1.06484e-16
1.06484e-16
1.06484e-16
1.06484e-16
1.06484e-16
1.06484e-16
1.06484e-16
1.06484e-16
1.06483e-16
1.06483e-16
1.06483e-16
1.06483e-16
1.06483e-16
1.06483e-16
1.06483e-16
1.06483e-16
1.06483e-16
1.06483e-16
1.06483e-16
1.06483e-16
1.06483e-16
1.06483e-16
1.06483e-16
1.06483e-16
1.06483e-16
1.06483e-16
1.06483e-16
1.06483e-16
1.06483e-16
1.06483e-16
1.06483e-16
1.06482e-16
1.06483e-16
1.06483e-16
1.06483e-16
1.06483e-16
1.06483e-16
1.06483e-16
1.06483e-16
1.06483e-16
1.06483e-16
1.06483e-16
1.06483e-16
1.06483e-16
1.06483e-16
1.06483e-16
1.06483e-16
1.06483e-16
1.06483e-16
1.06483e-16
1.06482e-16
1.06482e-16
1.06483e-16
1.06483e-16
1.06483e-16
1.06483e-16
1.06483e-16
1.06483e-16
1.06483e-16
1.06483e-16
1.06483e-16
1.06483e-16
1.06483e-16
1.06483e-16
1.06482e-16
1.06482e-16
1.06482e-16
1.06482e-16
1.06482e-16
1.06482e-16
1.06482e-16
1.06482e-16
1.06482e-16
1.06482e-16
1.06482e-16
1.06482e-16
1.06482e-16
1.06482e-16
1.06482e-16
1.06482e-16
1.06482e-16
1.06482e-16
1.06482e-16
1.06482e-16
1.06482e-16
1.06482e-16
1.06482e-16
1.06482e-16
1.06482e-16
1.06482e-16
1.06482e-16
1.06482e-16
1.06482e-16
1.06482e-16
1.06482e-16
1.06482e-16
1.06482e-16
1.06482e-16
1.06482e-16
1.06482e-16
1.06482e-16
1.06482e-16
1.06482e-16
1.06482e-16
1.06482e-16
1.06482e-16
1.06482e-16
1.06482e-16
1.06482e-16
1.06482e-16
1.06482e-16
1.06482e-16
1.06482e-16
1.06482e-16
1.06482e-16
1.06482e-16
1.06482e-16
1.06482e-16
1.06482e-16
1.06482e-16
1.06482e-16
1.06482e-16
1.06482e-16
1.06482e-16
1.06482e-16
1.06482e-16
1.06482e-16
1.06482e-16
1.06482e-16
1.06482e-16
1.06482e-16
1.06482e-16
1.06482e-16
1.06482e-16
1.06482e-16
1.06482e-16
1.06482e-16
1.06482e-16
1.06482e-16
1.06482e-16
1.06482e-16
1.06482e-16
1.06482e-16
1.06482e-16
1.06482e-16
1.06482e-16
1.06482e-16
1.06482e-16
1.06482e-16
1.06482e-16
1.06482e-16
1.06482e-16
1.06482e-16
1.06482e-16
1.06482e-16
1.06482e-16
1.06482e-16
1.06482e-16
1.06482e-16
1.06482e-16
1.06482e-16
1.06482e-16
1.06482e-16
1.06482e-16
1.06482e-16
1.06482e-16
1.06482e-16
1.06482e-16
1.06482e-16
1.06482e-16
1.06482e-16
1.06482e-16
1.06482e-16
1.06482e-16
1.06482e-16
1.06482e-16
1.06482e-16
1.06482e-16
1.06482e-16
1.06482e-16
1.06482e-16
1.06482e-16
1.06482e-16
1.06482e-16
1.06482e-16
1.06482e-16
1.06482e-16
1.06482e-16
1.06482e-16
1.06482e-16
1.06482e-16
1.06482e-16
1.06482e-16
1.06482e-16
1.06482e-16
1.06482e-16
1.06482e-16
1.06482e-16
1.06482e-16
1.06482e-16
1.06482e-16
1.06482e-16
1.06482e-16
1.06482e-16
1.06482e-16
1.06482e-16
1.06482e-16
1.06482e-16
1.06482e-16
1.06482e-16
1.06482e-16
1.06482e-16
1.06482e-16
1.06482e-16
1.06482e-16
1.06482e-16
1.06482e-16
1.06482e-16
1.06482e-16
1.06482e-16
1.06482e-16
1.06482e-16
1.06482e-16
1.06482e-16
1.06482e-16
1.06482e-16
1.06482e-16
1.06482e-16
1.06482e-16
1.06482e-16
1.06482e-16
1.06482e-16
1.06482e-16
1.06482e-16
1.06482e-16
1.06482e-16
1.06482e-16
1.06482e-16
1.06482e-16
1.06482e-16
1.06482e-16
1.06482e-16
1.06482e-16
1.06482e-16
1.06482e-16
1.06482e-16
1.06482e-16
1.06482e-16
1.06482e-16
1.06482e-16
1.06482e-16
1.06482e-16
1.06482e-16
1.06482e-16
1.06482e-16
1.06482e-16
1.06482e-16
1.06482e-16
1.06482e-16
1.06482e-16
1.06482e-16
1.06482e-16
1.06482e-16
1.06482e-16
1.06482e-16
1.06482e-16
1.06482e-16
1.06482e-16
1.06482e-16
1.06482e-16
1.06482e-16
1.06482e-16
1.06482e-16
1.06482e-16
1.06482e-16
1.06482e-16
1.06482e-16
1.06482e-16
1.06482e-16
1.06482e-16
1.06482e-16
1.06482e-16
1.06482e-16
1.06482e-16
1.06482e-16
1.06482e-16
1.06482e-16
1.06482e-16
1.06482e-16
1.06482e-16
1.06482e-16
1.06482e-16
1.06482e-16
1.06482e-16
1.06482e-16
1.06482e-16
1.06482e-16
1.06482e-16
1.06482e-16
1.06482e-16
1.06482e-16
1.06482e-16
1.06482e-16
1.06482e-16
1.06482e-16
1.06482e-16
1.06482e-16
1.06482e-16
1.06482e-16
1.06482e-16
1.06482e-16
1.06482e-16
1.06482e-16
1.06482e-16
1.06482e-16
1.06482e-16
1.06482e-16
1.06482e-16
1.06482e-16
1.06482e-16
1.06482e-16
1.06482e-16
1.06482e-16
1.06482e-16
1.06482e-16
1.06482e-16
1.06482e-16
1.06482e-16
1.06482e-16
1.06482e-16
1.06482e-16
1.06482e-16
1.06482e-16
1.06482e-16
1.06482e-16
1.06482e-16
1.06482e-16
1.06482e-16
1.06482e-16
1.06482e-16
1.06482e-16
1.06482e-16
1.06482e-16
1.06482e-16
1.06482e-16
1.06482e-16
1.06482e-16
1.06482e-16
1.06482e-16
1.06482e-16
1.06482e-16
1.06482e-16
1.06482e-16
1.06482e-16
1.06482e-16
1.06482e-16
1.06482e-16
1.06482e-16
1.06482e-16
1.06482e-16
1.06482e-16
1.06482e-16
1.06482e-16
1.06482e-16
1.06482e-16
1.06482e-16
1.06482e-16
1.06482e-16
1.06482e-16
1.06482e-16
1.06482e-16
1.06482e-16
1.06482e-16
1.06482e-16
1.06482e-16
1.06482e-16
1.06482e-16
1.06482e-16
1.06482e-16
1.06482e-16
1.06482e-16
1.06482e-16
1.06482e-16
1.06482e-16
1.06482e-16
1.06482e-16
1.06482e-16
1.06482e-16
1.06482e-16
1.06482e-16
1.06482e-16
1.06482e-16
1.06482e-16
1.06482e-16
1.06482e-16
1.06482e-16
1.06482e-16
1.06482e-16
1.06482e-16
1.06482e-16
1.06482e-16
1.06482e-16
1.06482e-16
1.06482e-16
1.06482e-16
1.06482e-16
1.06482e-16
1.06482e-16
1.06482e-16
1.06482e-16
1.06482e-16
1.06482e-16
1.06482e-16
1.06482e-16
1.06482e-16
1.06482e-16
1.06482e-16
1.06482e-16
1.06482e-16
1.06482e-16
1.06482e-16
1.06482e-16
1.06482e-16
1.06482e-16
1.06482e-16
1.06482e-16
1.06482e-16
1.06482e-16
1.06482e-16
1.06482e-16
1.06482e-16
1.06482e-16
1.06482e-16
1.06482e-16
1.06482e-16
1.06482e-16
1.06482e-16
1.06482e-16
1.06482e-16
1.06482e-16
1.06482e-16
1.06482e-16
1.06482e-16
1.06482e-16
1.06482e-16
1.06482e-16
1.06482e-16
1.06482e-16
1.06482e-16
1.06482e-16
1.06482e-16
1.06482e-16
1.06482e-16
1.06482e-16
1.06482e-16
1.06482e-16
1.06482e-16
1.06482e-16
1.06482e-16
1.06482e-16
1.06482e-16
1.06482e-16
1.06482e-16
1.06482e-16
1.06482e-16
1.06482e-16
1.06482e-16
1.06482e-16
1.06482e-16
1.06482e-16
1.06482e-16
1.06482e-16
1.06482e-16
1.06482e-16
1.06482e-16
1.06482e-16
1.06482e-16
1.06482e-16
1.06482e-16
1.06482e-16
1.06482e-16
1.06482e-16
1.06482e-16
1.06482e-16
1.06482e-16
1.06482e-16
1.06482e-16
1.06482e-16
1.06482e-16
1.06482e-16
1.06482e-16
1.06482e-16
1.06482e-16
1.06482e-16
1.06482e-16
1.06482e-16
1.06482e-16
1.06482e-16
1.06482e-16
1.06482e-16
1.06482e-16
1.06482e-16
1.06482e-16
1.06482e-16
1.06482e-16
1.06482e-16
1.06482e-16
1.06482e-16
1.06482e-16
1.06482e-16
1.06482e-16
1.06482e-16
1.06482e-16
1.06482e-16
1.06482e-16
1.06482e-16
1.06482e-16
1.06482e-16
1.06482e-16
1.06482e-16
1.06482e-16
1.06482e-16
1.06482e-16
1.06482e-16
1.06482e-16
1.06482e-16
1.06482e-16
1.06482e-16
1.06482e-16
1.06482e-16
1.06482e-16
1.06482e-16
1.06482e-16
1.06482e-16
1.06482e-16
1.06482e-16
1.06482e-16
1.06482e-16
1.06482e-16
1.06482e-16
1.06482e-16
1.06482e-16
1.06482e-16
1.06482e-16
1.06482e-16
1.06482e-16
1.06482e-16
1.06482e-16
1.06482e-16
1.06482e-16
1.06482e-16
1.06482e-16
)
;

boundaryField
{
    topWall
    {
        type            calculated;
        value           uniform 0;
    }
    bottomWall
    {
        type            zeroGradient;
    }
    sideWallL
    {
        type            symmetry;
    }
    sideWallR
    {
        type            calculated;
        value           uniform 0;
    }
    frontAndBack
    {
        type            empty;
    }
}


// ************************************************************************* //
