/*--------------------------------*- C++ -*----------------------------------*\
  =========                 |
  \\      /  F ield         | OpenFOAM: The Open Source CFD Toolbox
   \\    /   O peration     | Website:  https://openfoam.org
    \\  /    A nd           | Version:  7
     \\/     M anipulation  |
\*---------------------------------------------------------------------------*/
FoamFile
{
    version     2.0;
    format      ascii;
    class       volScalarField;
    location    "4";
    object      rhois;
}
// * * * * * * * * * * * * * * * * * * * * * * * * * * * * * * * * * * * * * //

dimensions      [1 -3 0 0 0 0 0];

internalField   nonuniform List<scalar> 
900
(
9.2469e-11
9.2469e-11
9.2469e-11
9.24689e-11
9.24687e-11
9.24683e-11
9.24672e-11
9.24647e-11
9.2459e-11
9.24458e-11
9.24161e-11
9.23499e-11
9.22034e-11
9.18803e-11
9.11637e-11
8.95453e-11
8.5767e-11
7.66009e-11
5.48164e-11
1.77349e-11
2.31437e-11
2.31437e-11
2.31437e-11
2.31437e-11
2.31436e-11
2.31433e-11
2.31426e-11
2.3141e-11
2.31373e-11
2.31288e-11
2.31096e-11
2.30673e-11
2.29749e-11
2.27759e-11
2.23523e-11
2.14654e-11
1.96636e-11
1.62504e-11
1.07877e-11
4.79829e-12
9.02846e-12
9.02846e-12
9.02845e-12
9.02843e-12
9.02837e-12
9.02823e-12
9.0279e-12
9.02713e-12
9.02534e-12
9.0213e-12
9.01229e-12
8.99261e-12
8.9505e-12
8.86231e-12
8.68241e-12
8.32852e-12
7.67089e-12
6.56194e-12
4.98151e-12
3.273e-12
5.07091e-12
5.07091e-12
5.0709e-12
5.07089e-12
5.07086e-12
5.07079e-12
5.07062e-12
5.07023e-12
5.06932e-12
5.06729e-12
5.06282e-12
5.05322e-12
5.03312e-12
4.99225e-12
4.912e-12
4.76162e-12
4.49775e-12
4.07761e-12
3.49825e-12
2.84813e-12
3.662e-12
3.662e-12
3.662e-12
3.66199e-12
3.66197e-12
3.66193e-12
3.66184e-12
3.66162e-12
3.66112e-12
3.66e-12
3.6576e-12
3.65253e-12
3.64217e-12
3.62168e-12
3.58282e-12
3.51279e-12
3.39488e-12
3.21371e-12
2.96786e-12
2.68548e-12
3.07392e-12
3.07392e-12
3.07392e-12
3.07391e-12
3.0739e-12
3.07388e-12
3.07382e-12
3.07369e-12
3.0734e-12
3.07275e-12
3.07138e-12
3.06856e-12
3.06291e-12
3.05206e-12
3.03211e-12
2.99737e-12
2.94085e-12
2.85653e-12
2.74399e-12
2.61383e-12
2.80392e-12
2.80392e-12
2.80392e-12
2.80392e-12
2.80391e-12
2.8039e-12
2.80386e-12
2.80378e-12
2.8036e-12
2.80322e-12
2.80242e-12
2.80081e-12
2.79766e-12
2.79177e-12
2.78125e-12
2.7635e-12
2.73549e-12
2.69485e-12
2.64162e-12
2.58025e-12
2.67365e-12
2.67365e-12
2.67365e-12
2.67365e-12
2.67364e-12
2.67363e-12
2.67361e-12
2.67356e-12
2.67345e-12
2.67323e-12
2.67277e-12
2.67185e-12
2.6701e-12
2.6669e-12
2.66134e-12
2.65223e-12
2.63827e-12
2.61851e-12
2.59315e-12
2.56415e-12
2.60958e-12
2.60958e-12
2.60958e-12
2.60958e-12
2.60958e-12
2.60957e-12
2.60956e-12
2.60953e-12
2.60947e-12
2.60934e-12
2.60907e-12
2.60856e-12
2.6076e-12
2.6059e-12
2.60301e-12
2.5984e-12
2.5915e-12
2.58198e-12
2.56999e-12
2.55641e-12
2.5781e-12
2.5781e-12
2.5781e-12
2.5781e-12
2.5781e-12
2.57809e-12
2.57809e-12
2.57807e-12
2.57803e-12
2.57796e-12
2.57782e-12
2.57754e-12
2.57703e-12
2.57615e-12
2.57468e-12
2.5724e-12
2.56907e-12
2.56456e-12
2.55898e-12
2.55272e-12
2.56283e-12
2.56283e-12
2.56283e-12
2.56283e-12
2.56283e-12
2.56283e-12
2.56283e-12
2.56282e-12
2.5628e-12
2.56276e-12
2.56268e-12
2.56254e-12
2.56228e-12
2.56184e-12
2.56112e-12
2.56002e-12
2.55845e-12
2.55636e-12
2.55382e-12
2.551e-12
2.55558e-12
2.55558e-12
2.55558e-12
2.55558e-12
2.55558e-12
2.55558e-12
2.55558e-12
2.55558e-12
2.55557e-12
2.55555e-12
2.55551e-12
2.55543e-12
2.55531e-12
2.55509e-12
2.55475e-12
2.55424e-12
2.55352e-12
2.55258e-12
2.55145e-12
2.55021e-12
2.55223e-12
2.55223e-12
2.55223e-12
2.55223e-12
2.55223e-12
2.55223e-12
2.55223e-12
2.55222e-12
2.55222e-12
2.55221e-12
2.55219e-12
2.55216e-12
2.55209e-12
2.55199e-12
2.55184e-12
2.55161e-12
2.55129e-12
2.55088e-12
2.55039e-12
2.54985e-12
2.55072e-12
2.55072e-12
2.55072e-12
2.55072e-12
2.55072e-12
2.55072e-12
2.55072e-12
2.55072e-12
2.55071e-12
2.55071e-12
2.5507e-12
2.55068e-12
2.55066e-12
2.55061e-12
2.55054e-12
2.55044e-12
2.5503e-12
2.55013e-12
2.54992e-12
2.5497e-12
2.55006e-12
2.55006e-12
2.55006e-12
2.55006e-12
2.55006e-12
2.55006e-12
2.55006e-12
2.55006e-12
2.55005e-12
2.55005e-12
2.55005e-12
2.55004e-12
2.55003e-12
2.55001e-12
2.54998e-12
2.54994e-12
2.54988e-12
2.54981e-12
2.54972e-12
2.54963e-12
2.54978e-12
2.54978e-12
2.54978e-12
2.54978e-12
2.54978e-12
2.54978e-12
2.54978e-12
2.54978e-12
2.54977e-12
2.54977e-12
2.54977e-12
2.54977e-12
2.54976e-12
2.54976e-12
2.54974e-12
2.54973e-12
2.5497e-12
2.54967e-12
2.54964e-12
2.5496e-12
2.54966e-12
2.54966e-12
2.54966e-12
2.54966e-12
2.54966e-12
2.54966e-12
2.54966e-12
2.54966e-12
2.54966e-12
2.54966e-12
2.54966e-12
2.54966e-12
2.54965e-12
2.54965e-12
2.54965e-12
2.54964e-12
2.54963e-12
2.54962e-12
2.54961e-12
2.54959e-12
2.54961e-12
2.54961e-12
2.54961e-12
2.54961e-12
2.54961e-12
2.54961e-12
2.54961e-12
2.54961e-12
2.54961e-12
2.54961e-12
2.54961e-12
2.54961e-12
2.54961e-12
2.54961e-12
2.54961e-12
2.54961e-12
2.5496e-12
2.5496e-12
2.54959e-12
2.54959e-12
2.5496e-12
2.5496e-12
2.5496e-12
2.5496e-12
2.5496e-12
2.5496e-12
2.5496e-12
2.5496e-12
2.5496e-12
2.5496e-12
2.5496e-12
2.54959e-12
2.54959e-12
2.54959e-12
2.54959e-12
2.54959e-12
2.54959e-12
2.54959e-12
2.54959e-12
2.54959e-12
2.54959e-12
2.54959e-12
2.54959e-12
2.54959e-12
2.54959e-12
2.54959e-12
2.54959e-12
2.54959e-12
2.54959e-12
2.54959e-12
2.54959e-12
2.54959e-12
2.54959e-12
2.54959e-12
2.54959e-12
2.54959e-12
2.54959e-12
2.54959e-12
2.54959e-12
2.54958e-12
2.54959e-12
2.54959e-12
2.54959e-12
2.54959e-12
2.54959e-12
2.54959e-12
2.54959e-12
2.54959e-12
2.54959e-12
2.54959e-12
2.54959e-12
2.54959e-12
2.54959e-12
2.54959e-12
2.54959e-12
2.54959e-12
2.54959e-12
2.54959e-12
2.54959e-12
2.54958e-12
2.54959e-12
2.54959e-12
2.54959e-12
2.54959e-12
2.54959e-12
2.54959e-12
2.54959e-12
2.54959e-12
2.54959e-12
2.54959e-12
2.54959e-12
2.54959e-12
2.54959e-12
2.54959e-12
2.54959e-12
2.54958e-12
2.54958e-12
2.54958e-12
2.54958e-12
2.54958e-12
2.54958e-12
2.54958e-12
2.54958e-12
2.54958e-12
2.54958e-12
2.54958e-12
2.54958e-12
2.54958e-12
2.54958e-12
2.54958e-12
2.54958e-12
2.54958e-12
2.54958e-12
2.54958e-12
2.54958e-12
2.54958e-12
2.54958e-12
2.54958e-12
2.54958e-12
2.54958e-12
2.54958e-12
2.54958e-12
2.54958e-12
2.54958e-12
2.54958e-12
2.54958e-12
2.54958e-12
2.54958e-12
2.54958e-12
2.54958e-12
2.54958e-12
2.54958e-12
2.54958e-12
2.54958e-12
2.54958e-12
2.54958e-12
2.54958e-12
2.54958e-12
2.54958e-12
2.54958e-12
2.54958e-12
2.54958e-12
2.54958e-12
2.54958e-12
2.54958e-12
2.54958e-12
2.54958e-12
2.54958e-12
2.54958e-12
2.54958e-12
2.54958e-12
2.54958e-12
2.54958e-12
2.54958e-12
2.54958e-12
2.54958e-12
2.54958e-12
2.54958e-12
2.54958e-12
2.54958e-12
2.54958e-12
2.54958e-12
2.54958e-12
2.54958e-12
2.54958e-12
2.54958e-12
2.54958e-12
2.54958e-12
2.54958e-12
2.54958e-12
2.54958e-12
2.54958e-12
2.54958e-12
2.54958e-12
2.54958e-12
2.54958e-12
2.54958e-12
2.54958e-12
2.54958e-12
2.54958e-12
2.54958e-12
2.54958e-12
2.54958e-12
2.54958e-12
2.54958e-12
2.54958e-12
2.54958e-12
2.54958e-12
2.54958e-12
2.54958e-12
2.54958e-12
2.54958e-12
2.54958e-12
2.54958e-12
2.54958e-12
2.54958e-12
2.54958e-12
2.54958e-12
2.54958e-12
2.54958e-12
2.54958e-12
2.54958e-12
2.54958e-12
2.54958e-12
2.54958e-12
2.54958e-12
2.54958e-12
2.54958e-12
2.54958e-12
2.54958e-12
2.54958e-12
2.54958e-12
2.54958e-12
2.54958e-12
2.54958e-12
2.54958e-12
2.54958e-12
2.54958e-12
2.54958e-12
2.54958e-12
2.54958e-12
2.54958e-12
2.54958e-12
2.54958e-12
2.54958e-12
2.54958e-12
2.54958e-12
2.54958e-12
2.54958e-12
2.54958e-12
2.54958e-12
2.54958e-12
2.54958e-12
2.54958e-12
2.54958e-12
2.54958e-12
2.54958e-12
2.54958e-12
2.54958e-12
2.54958e-12
2.54958e-12
2.54958e-12
2.54958e-12
2.54958e-12
2.54958e-12
2.54958e-12
2.54958e-12
2.54958e-12
2.54958e-12
2.54958e-12
2.54958e-12
2.54958e-12
2.54958e-12
2.54958e-12
2.54958e-12
2.54958e-12
2.54958e-12
2.54958e-12
2.54958e-12
2.54958e-12
2.54958e-12
2.54958e-12
2.54958e-12
2.54958e-12
2.54958e-12
2.54958e-12
2.54958e-12
2.54958e-12
2.54958e-12
2.54958e-12
2.54958e-12
2.54958e-12
2.54958e-12
2.54958e-12
2.54958e-12
2.54958e-12
2.54958e-12
2.54958e-12
2.54958e-12
2.54958e-12
2.54958e-12
2.54958e-12
2.54958e-12
2.54958e-12
2.54958e-12
2.54958e-12
2.54958e-12
2.54958e-12
2.54958e-12
2.54958e-12
2.54958e-12
2.54958e-12
2.54958e-12
2.54958e-12
2.54958e-12
2.54958e-12
2.54958e-12
2.54958e-12
2.54958e-12
2.54958e-12
2.54958e-12
2.54958e-12
2.54958e-12
2.54958e-12
2.54958e-12
2.54958e-12
2.54958e-12
2.54958e-12
2.54958e-12
2.54958e-12
2.54958e-12
2.54958e-12
2.54958e-12
2.54958e-12
2.54958e-12
2.54958e-12
2.54958e-12
2.54958e-12
2.54958e-12
2.54958e-12
2.54958e-12
2.54958e-12
2.54958e-12
2.54958e-12
2.54958e-12
2.54958e-12
2.54958e-12
2.54958e-12
2.54958e-12
2.54958e-12
2.54958e-12
2.54958e-12
2.54958e-12
2.54958e-12
2.54958e-12
2.54958e-12
2.54958e-12
2.54958e-12
2.54958e-12
2.54958e-12
2.54958e-12
2.54958e-12
2.54958e-12
2.54958e-12
2.54958e-12
2.54958e-12
2.54958e-12
2.54958e-12
2.54958e-12
2.54958e-12
2.54958e-12
2.54958e-12
2.54958e-12
2.54958e-12
2.54958e-12
2.54958e-12
2.54958e-12
2.54958e-12
2.54958e-12
2.54958e-12
2.54958e-12
2.54958e-12
2.54958e-12
2.54958e-12
2.54958e-12
2.54958e-12
2.54958e-12
2.54958e-12
2.54958e-12
2.54958e-12
2.54958e-12
2.54958e-12
2.54958e-12
2.54958e-12
2.54958e-12
2.54958e-12
2.54958e-12
2.54958e-12
2.54958e-12
2.54958e-12
2.54958e-12
2.54958e-12
2.54958e-12
2.54958e-12
2.54958e-12
2.54958e-12
2.54958e-12
2.54958e-12
2.54958e-12
2.54958e-12
2.54958e-12
2.54958e-12
2.54958e-12
2.54958e-12
2.54958e-12
2.54958e-12
2.54958e-12
2.54958e-12
2.54958e-12
2.54958e-12
2.54958e-12
2.54958e-12
2.54958e-12
2.54958e-12
2.54958e-12
2.54958e-12
2.54958e-12
2.54958e-12
2.54958e-12
2.54958e-12
2.54958e-12
2.54958e-12
2.54958e-12
2.54958e-12
2.54958e-12
2.54958e-12
2.54958e-12
2.54958e-12
2.54958e-12
2.54958e-12
2.54958e-12
2.54958e-12
2.54958e-12
2.54958e-12
2.54958e-12
2.54958e-12
2.54958e-12
2.54958e-12
2.54958e-12
2.54958e-12
2.54958e-12
2.54958e-12
2.54958e-12
2.54958e-12
2.54958e-12
2.54958e-12
2.54958e-12
2.54958e-12
2.54958e-12
2.54958e-12
2.54958e-12
2.54958e-12
2.54958e-12
2.54958e-12
2.54958e-12
2.54958e-12
2.54958e-12
2.54958e-12
2.54958e-12
2.54958e-12
2.54958e-12
2.54958e-12
2.54958e-12
2.54958e-12
2.54958e-12
2.54958e-12
2.54958e-12
2.54958e-12
2.54958e-12
2.54958e-12
2.54958e-12
2.54958e-12
2.54958e-12
2.54958e-12
2.54958e-12
2.54958e-12
2.54958e-12
2.54958e-12
2.54958e-12
2.54958e-12
2.54958e-12
2.54958e-12
2.54958e-12
2.54958e-12
2.54958e-12
2.54958e-12
2.54958e-12
2.54958e-12
2.54958e-12
2.54958e-12
2.54958e-12
2.54958e-12
2.54958e-12
2.54958e-12
2.54958e-12
2.54958e-12
2.54958e-12
2.54958e-12
2.54958e-12
2.54958e-12
2.54958e-12
2.54958e-12
2.54958e-12
2.54958e-12
2.54958e-12
2.54958e-12
2.54958e-12
2.54958e-12
2.54958e-12
2.54958e-12
2.54958e-12
2.54958e-12
2.54958e-12
2.54958e-12
2.54958e-12
2.54958e-12
2.54958e-12
2.54958e-12
2.54958e-12
2.54958e-12
2.54958e-12
2.54958e-12
2.54958e-12
2.54958e-12
2.54958e-12
2.54958e-12
2.54958e-12
2.54958e-12
2.54958e-12
2.54958e-12
2.54958e-12
2.54958e-12
2.54958e-12
2.54958e-12
2.54958e-12
2.54958e-12
2.54958e-12
2.54958e-12
2.54958e-12
2.54958e-12
2.54958e-12
2.54958e-12
2.54958e-12
2.54958e-12
2.54958e-12
2.54958e-12
2.54958e-12
2.54958e-12
2.54958e-12
2.54958e-12
2.54958e-12
2.54958e-12
2.54958e-12
2.54958e-12
2.54958e-12
2.54958e-12
2.54958e-12
2.54958e-12
2.54958e-12
2.54958e-12
2.54958e-12
2.54958e-12
2.54958e-12
2.54958e-12
2.54958e-12
2.54958e-12
2.54958e-12
2.54958e-12
2.54958e-12
2.54958e-12
)
;

boundaryField
{
    topWall
    {
        type            zeroGradient;
    }
    bottomWall
    {
        type            zeroGradient;
    }
    sideWallL
    {
        type            symmetry;
    }
    sideWallR
    {
        type            zeroGradient;
    }
    frontAndBack
    {
        type            empty;
    }
}


// ************************************************************************* //
