/*--------------------------------*- C++ -*----------------------------------*\
  =========                 |
  \\      /  F ield         | OpenFOAM: The Open Source CFD Toolbox
   \\    /   O peration     | Website:  https://openfoam.org
    \\  /    A nd           | Version:  7
     \\/     M anipulation  |
\*---------------------------------------------------------------------------*/
FoamFile
{
    version     2.0;
    format      ascii;
    class       volScalarField;
    location    "4";
    object      rhot1;
}
// * * * * * * * * * * * * * * * * * * * * * * * * * * * * * * * * * * * * * //

dimensions      [1 -3 0 0 0 0 0];

internalField   nonuniform List<scalar> 
900
(
3.19245e-13
3.19245e-13
3.19245e-13
3.19244e-13
3.19243e-13
3.19241e-13
3.19236e-13
3.19223e-13
3.19193e-13
3.19124e-13
3.18971e-13
3.18633e-13
3.1789e-13
3.16268e-13
3.12711e-13
3.04792e-13
2.86693e-13
2.44465e-13
1.5282e-13
3.11591e-14
4.76029e-14
4.76028e-14
4.76028e-14
4.76026e-14
4.76022e-14
4.76013e-14
4.75991e-14
4.7594e-14
4.75822e-14
4.75553e-14
4.74954e-14
4.73639e-14
4.70795e-14
4.64734e-14
4.52024e-14
4.25986e-14
3.74977e-14
2.84611e-14
1.57715e-14
4.95876e-15
1.26204e-14
1.26204e-14
1.26204e-14
1.26204e-14
1.26202e-14
1.26199e-14
1.26192e-14
1.26175e-14
1.26136e-14
1.26048e-14
1.25853e-14
1.2543e-14
1.24534e-14
1.22678e-14
1.18949e-14
1.11784e-14
9.89655e-15
7.86976e-15
5.27886e-15
2.91904e-15
5.50411e-15
5.5041e-15
5.5041e-15
5.50407e-15
5.50402e-15
5.5039e-15
5.50361e-15
5.50294e-15
5.50142e-15
5.498e-15
5.49055e-15
5.47463e-15
5.44157e-15
5.37497e-15
5.24596e-15
5.00898e-15
4.60582e-15
3.99423e-15
3.21041e-15
2.41542e-15
3.44627e-15
3.44626e-15
3.44626e-15
3.44625e-15
3.44623e-15
3.44617e-15
3.44603e-15
3.44572e-15
3.44501e-15
3.44344e-15
3.44007e-15
3.43299e-15
3.41859e-15
3.39035e-15
3.3373e-15
3.2431e-15
3.08789e-15
2.85687e-15
2.55697e-15
2.23143e-15
2.68992e-15
2.68992e-15
2.68992e-15
2.68991e-15
2.6899e-15
2.68987e-15
2.6898e-15
2.68963e-15
2.68926e-15
2.68845e-15
2.68672e-15
2.68318e-15
2.67613e-15
2.66264e-15
2.638e-15
2.59551e-15
2.52733e-15
2.42755e-15
2.29772e-15
2.15212e-15
2.36782e-15
2.36782e-15
2.36782e-15
2.36782e-15
2.36781e-15
2.36779e-15
2.36775e-15
2.36765e-15
2.36744e-15
2.36699e-15
2.36605e-15
2.36416e-15
2.36047e-15
2.35358e-15
2.34133e-15
2.32079e-15
2.28864e-15
2.2425e-15
2.18291e-15
2.11534e-15
2.21902e-15
2.21902e-15
2.21902e-15
2.21902e-15
2.21902e-15
2.21901e-15
2.21898e-15
2.21893e-15
2.2188e-15
2.21855e-15
2.21802e-15
2.21698e-15
2.215e-15
2.21139e-15
2.20514e-15
2.19492e-15
2.17933e-15
2.15741e-15
2.12947e-15
2.09781e-15
2.14764e-15
2.14764e-15
2.14764e-15
2.14764e-15
2.14763e-15
2.14763e-15
2.14761e-15
2.14758e-15
2.14751e-15
2.14737e-15
2.14707e-15
2.14651e-15
2.14545e-15
2.14356e-15
2.14037e-15
2.13528e-15
2.1277e-15
2.11726e-15
2.10417e-15
2.08941e-15
2.11304e-15
2.11304e-15
2.11304e-15
2.11304e-15
2.11304e-15
2.11303e-15
2.11303e-15
2.11301e-15
2.11297e-15
2.11289e-15
2.11273e-15
2.11243e-15
2.11187e-15
2.1109e-15
2.1093e-15
2.10681e-15
2.10317e-15
2.09826e-15
2.0922e-15
2.08541e-15
2.09639e-15
2.09639e-15
2.09639e-15
2.09639e-15
2.09639e-15
2.09639e-15
2.09638e-15
2.09637e-15
2.09635e-15
2.09631e-15
2.09622e-15
2.09607e-15
2.09579e-15
2.0953e-15
2.09452e-15
2.09333e-15
2.09162e-15
2.08936e-15
2.0866e-15
2.08354e-15
2.08852e-15
2.08852e-15
2.08852e-15
2.08851e-15
2.08851e-15
2.08851e-15
2.08851e-15
2.08851e-15
2.08849e-15
2.08847e-15
2.08843e-15
2.08835e-15
2.08821e-15
2.08798e-15
2.08761e-15
2.08706e-15
2.08628e-15
2.08526e-15
2.08403e-15
2.08269e-15
2.08488e-15
2.08488e-15
2.08488e-15
2.08488e-15
2.08488e-15
2.08488e-15
2.08487e-15
2.08487e-15
2.08487e-15
2.08486e-15
2.08483e-15
2.0848e-15
2.08473e-15
2.08462e-15
2.08445e-15
2.0842e-15
2.08386e-15
2.08341e-15
2.08288e-15
2.0823e-15
2.08324e-15
2.08324e-15
2.08324e-15
2.08324e-15
2.08324e-15
2.08324e-15
2.08324e-15
2.08324e-15
2.08324e-15
2.08323e-15
2.08322e-15
2.0832e-15
2.08317e-15
2.08312e-15
2.08305e-15
2.08294e-15
2.08279e-15
2.0826e-15
2.08238e-15
2.08214e-15
2.08252e-15
2.08252e-15
2.08252e-15
2.08252e-15
2.08252e-15
2.08252e-15
2.08252e-15
2.08252e-15
2.08252e-15
2.08252e-15
2.08252e-15
2.08251e-15
2.08249e-15
2.08247e-15
2.08244e-15
2.0824e-15
2.08233e-15
2.08225e-15
2.08216e-15
2.08206e-15
2.08222e-15
2.08222e-15
2.08222e-15
2.08222e-15
2.08222e-15
2.08222e-15
2.08222e-15
2.08222e-15
2.08222e-15
2.08222e-15
2.08222e-15
2.08221e-15
2.08221e-15
2.0822e-15
2.08219e-15
2.08217e-15
2.08214e-15
2.08211e-15
2.08207e-15
2.08203e-15
2.0821e-15
2.0821e-15
2.0821e-15
2.0821e-15
2.0821e-15
2.0821e-15
2.0821e-15
2.0821e-15
2.08209e-15
2.08209e-15
2.08209e-15
2.08209e-15
2.08209e-15
2.08209e-15
2.08208e-15
2.08207e-15
2.08206e-15
2.08205e-15
2.08204e-15
2.08202e-15
2.08205e-15
2.08205e-15
2.08205e-15
2.08205e-15
2.08205e-15
2.08205e-15
2.08205e-15
2.08205e-15
2.08205e-15
2.08204e-15
2.08204e-15
2.08204e-15
2.08204e-15
2.08204e-15
2.08204e-15
2.08204e-15
2.08203e-15
2.08203e-15
2.08202e-15
2.08202e-15
2.08203e-15
2.08203e-15
2.08203e-15
2.08203e-15
2.08203e-15
2.08203e-15
2.08203e-15
2.08203e-15
2.08203e-15
2.08203e-15
2.08203e-15
2.08203e-15
2.08202e-15
2.08202e-15
2.08202e-15
2.08202e-15
2.08202e-15
2.08202e-15
2.08202e-15
2.08202e-15
2.08202e-15
2.08202e-15
2.08202e-15
2.08202e-15
2.08202e-15
2.08202e-15
2.08202e-15
2.08202e-15
2.08202e-15
2.08202e-15
2.08202e-15
2.08202e-15
2.08202e-15
2.08202e-15
2.08202e-15
2.08202e-15
2.08202e-15
2.08202e-15
2.08202e-15
2.08201e-15
2.08202e-15
2.08202e-15
2.08202e-15
2.08202e-15
2.08202e-15
2.08202e-15
2.08202e-15
2.08202e-15
2.08202e-15
2.08202e-15
2.08202e-15
2.08202e-15
2.08202e-15
2.08202e-15
2.08202e-15
2.08202e-15
2.08201e-15
2.08201e-15
2.08201e-15
2.08201e-15
2.08201e-15
2.08201e-15
2.08201e-15
2.08201e-15
2.08201e-15
2.08201e-15
2.08201e-15
2.08201e-15
2.08201e-15
2.08201e-15
2.08201e-15
2.08201e-15
2.08201e-15
2.08201e-15
2.08201e-15
2.08201e-15
2.08201e-15
2.08201e-15
2.08201e-15
2.08201e-15
2.08201e-15
2.08201e-15
2.08201e-15
2.08201e-15
2.08201e-15
2.08201e-15
2.08201e-15
2.08201e-15
2.08201e-15
2.08201e-15
2.08201e-15
2.08201e-15
2.08201e-15
2.08201e-15
2.08201e-15
2.08201e-15
2.08201e-15
2.08201e-15
2.08201e-15
2.08201e-15
2.08201e-15
2.08201e-15
2.08201e-15
2.08201e-15
2.08201e-15
2.08201e-15
2.08201e-15
2.08201e-15
2.08201e-15
2.08201e-15
2.08201e-15
2.08201e-15
2.08201e-15
2.08201e-15
2.08201e-15
2.08201e-15
2.08201e-15
2.08201e-15
2.08201e-15
2.08201e-15
2.08201e-15
2.08201e-15
2.08201e-15
2.08201e-15
2.08201e-15
2.08201e-15
2.08201e-15
2.08201e-15
2.08201e-15
2.08201e-15
2.08201e-15
2.08201e-15
2.08201e-15
2.08201e-15
2.08201e-15
2.08201e-15
2.08201e-15
2.08201e-15
2.08201e-15
2.08201e-15
2.08201e-15
2.08201e-15
2.08201e-15
2.08201e-15
2.08201e-15
2.08201e-15
2.08201e-15
2.08201e-15
2.08201e-15
2.08201e-15
2.08201e-15
2.08201e-15
2.08201e-15
2.08201e-15
2.08201e-15
2.08201e-15
2.08201e-15
2.08201e-15
2.08201e-15
2.08201e-15
2.08201e-15
2.08201e-15
2.08201e-15
2.08201e-15
2.08201e-15
2.08201e-15
2.08201e-15
2.08201e-15
2.08201e-15
2.08201e-15
2.08201e-15
2.08201e-15
2.08201e-15
2.08201e-15
2.08201e-15
2.08201e-15
2.08201e-15
2.08201e-15
2.08201e-15
2.08201e-15
2.08201e-15
2.08201e-15
2.08201e-15
2.08201e-15
2.08201e-15
2.08201e-15
2.08201e-15
2.08201e-15
2.08201e-15
2.08201e-15
2.08201e-15
2.08201e-15
2.08201e-15
2.08201e-15
2.08201e-15
2.08201e-15
2.08201e-15
2.08201e-15
2.08201e-15
2.08201e-15
2.08201e-15
2.08201e-15
2.08201e-15
2.08201e-15
2.08201e-15
2.08201e-15
2.08201e-15
2.08201e-15
2.08201e-15
2.08201e-15
2.08201e-15
2.08201e-15
2.08201e-15
2.08201e-15
2.08201e-15
2.08201e-15
2.08201e-15
2.08201e-15
2.08201e-15
2.08201e-15
2.08201e-15
2.08201e-15
2.08201e-15
2.08201e-15
2.08201e-15
2.08201e-15
2.08201e-15
2.08201e-15
2.08201e-15
2.08201e-15
2.08201e-15
2.08201e-15
2.08201e-15
2.08201e-15
2.08201e-15
2.08201e-15
2.08201e-15
2.08201e-15
2.08201e-15
2.08201e-15
2.08201e-15
2.08201e-15
2.08201e-15
2.08201e-15
2.08201e-15
2.08201e-15
2.08201e-15
2.08201e-15
2.08201e-15
2.08201e-15
2.08201e-15
2.08201e-15
2.08201e-15
2.08201e-15
2.08201e-15
2.08201e-15
2.08201e-15
2.08201e-15
2.08201e-15
2.08201e-15
2.08201e-15
2.08201e-15
2.08201e-15
2.08201e-15
2.08201e-15
2.08201e-15
2.08201e-15
2.08201e-15
2.08201e-15
2.08201e-15
2.08201e-15
2.08201e-15
2.08201e-15
2.08201e-15
2.08201e-15
2.08201e-15
2.08201e-15
2.08201e-15
2.08201e-15
2.08201e-15
2.08201e-15
2.08201e-15
2.08201e-15
2.08201e-15
2.08201e-15
2.08201e-15
2.08201e-15
2.08201e-15
2.08201e-15
2.08201e-15
2.08201e-15
2.08201e-15
2.08201e-15
2.08201e-15
2.08201e-15
2.08201e-15
2.08201e-15
2.08201e-15
2.08201e-15
2.08201e-15
2.08201e-15
2.08201e-15
2.08201e-15
2.08201e-15
2.08201e-15
2.08201e-15
2.08201e-15
2.08201e-15
2.08201e-15
2.08201e-15
2.08201e-15
2.08201e-15
2.08201e-15
2.08201e-15
2.08201e-15
2.08201e-15
2.08201e-15
2.08201e-15
2.08201e-15
2.08201e-15
2.08201e-15
2.08201e-15
2.08201e-15
2.08201e-15
2.08201e-15
2.08201e-15
2.08201e-15
2.08201e-15
2.08201e-15
2.08201e-15
2.08201e-15
2.08201e-15
2.08201e-15
2.08201e-15
2.08201e-15
2.08201e-15
2.08201e-15
2.08201e-15
2.08201e-15
2.08201e-15
2.08201e-15
2.08201e-15
2.08201e-15
2.08201e-15
2.08201e-15
2.08201e-15
2.08201e-15
2.08201e-15
2.08201e-15
2.08201e-15
2.08201e-15
2.08201e-15
2.08201e-15
2.08201e-15
2.08201e-15
2.08201e-15
2.08201e-15
2.08201e-15
2.08201e-15
2.08201e-15
2.08201e-15
2.08201e-15
2.08201e-15
2.08201e-15
2.08201e-15
2.08201e-15
2.08201e-15
2.08201e-15
2.08201e-15
2.08201e-15
2.08201e-15
2.08201e-15
2.08201e-15
2.08201e-15
2.08201e-15
2.08201e-15
2.08201e-15
2.08201e-15
2.08201e-15
2.08201e-15
2.08201e-15
2.08201e-15
2.08201e-15
2.08201e-15
2.08201e-15
2.08201e-15
2.08201e-15
2.08201e-15
2.08201e-15
2.08201e-15
2.08201e-15
2.08201e-15
2.08201e-15
2.08201e-15
2.08201e-15
2.08201e-15
2.08201e-15
2.08201e-15
2.08201e-15
2.08201e-15
2.08201e-15
2.08201e-15
2.08201e-15
2.08201e-15
2.08201e-15
2.08201e-15
2.08201e-15
2.08201e-15
2.08201e-15
2.08201e-15
2.08201e-15
2.08201e-15
2.08201e-15
2.08201e-15
2.08201e-15
2.08201e-15
2.08201e-15
2.08201e-15
2.08201e-15
2.08201e-15
2.08201e-15
2.08201e-15
2.08201e-15
2.08201e-15
2.08201e-15
2.08201e-15
2.08201e-15
2.08201e-15
2.08201e-15
2.08201e-15
2.08201e-15
2.08201e-15
2.08201e-15
2.08201e-15
2.08201e-15
2.08201e-15
2.08201e-15
2.08201e-15
2.08201e-15
2.08201e-15
2.08201e-15
2.08201e-15
2.08201e-15
2.08201e-15
2.08201e-15
2.08201e-15
2.08201e-15
2.08201e-15
2.08201e-15
2.08201e-15
2.08201e-15
2.08201e-15
2.08201e-15
2.08201e-15
2.08201e-15
2.08201e-15
2.08201e-15
2.08201e-15
2.08201e-15
2.08201e-15
2.08201e-15
2.08201e-15
2.08201e-15
2.08201e-15
2.08201e-15
2.08201e-15
2.08201e-15
2.08201e-15
2.08201e-15
2.08201e-15
2.08201e-15
2.08201e-15
2.08201e-15
2.08201e-15
2.08201e-15
2.08201e-15
2.08201e-15
2.08201e-15
2.08201e-15
2.08201e-15
2.08201e-15
2.08201e-15
2.08201e-15
2.08201e-15
2.08201e-15
2.08201e-15
2.08201e-15
2.08201e-15
2.08201e-15
2.08201e-15
2.08201e-15
2.08201e-15
2.08201e-15
2.08201e-15
2.08201e-15
2.08201e-15
2.08201e-15
2.08201e-15
2.08201e-15
2.08201e-15
2.08201e-15
2.08201e-15
2.08201e-15
2.08201e-15
2.08201e-15
2.08201e-15
2.08201e-15
2.08201e-15
2.08201e-15
2.08201e-15
2.08201e-15
2.08201e-15
2.08201e-15
2.08201e-15
2.08201e-15
2.08201e-15
2.08201e-15
2.08201e-15
2.08201e-15
2.08201e-15
2.08201e-15
2.08201e-15
2.08201e-15
2.08201e-15
2.08201e-15
2.08201e-15
2.08201e-15
2.08201e-15
2.08201e-15
2.08201e-15
2.08201e-15
2.08201e-15
2.08201e-15
2.08201e-15
2.08201e-15
2.08201e-15
2.08201e-15
2.08201e-15
2.08201e-15
2.08201e-15
)
;

boundaryField
{
    topWall
    {
        type            zeroGradient;
    }
    bottomWall
    {
        type            zeroGradient;
    }
    sideWallL
    {
        type            symmetry;
    }
    sideWallR
    {
        type            calculated;
        value           uniform 0;
    }
    frontAndBack
    {
        type            empty;
    }
}


// ************************************************************************* //
