/*--------------------------------*- C++ -*----------------------------------*\
  =========                 |
  \\      /  F ield         | OpenFOAM: The Open Source CFD Toolbox
   \\    /   O peration     | Website:  https://openfoam.org
    \\  /    A nd           | Version:  7
     \\/     M anipulation  |
\*---------------------------------------------------------------------------*/
FoamFile
{
    version     2.0;
    format      ascii;
    class       volScalarField;
    location    "4";
    object      rhot2;
}
// * * * * * * * * * * * * * * * * * * * * * * * * * * * * * * * * * * * * * //

dimensions      [1 -3 0 0 0 0 0];

internalField   nonuniform List<scalar> 
900
(
8.67704e-27
8.67704e-27
8.67703e-27
8.67701e-27
8.67696e-27
8.67684e-27
8.67655e-27
8.67587e-27
8.6743e-27
8.67074e-27
8.66273e-27
8.645e-27
8.60615e-27
8.52146e-27
8.33695e-27
7.93273e-27
7.04459e-27
5.17038e-27
2.07622e-27
9.48609e-29
2.1345e-28
2.1345e-28
2.1345e-28
2.13448e-28
2.13445e-28
2.13437e-28
2.13418e-28
2.13374e-28
2.13273e-28
2.13042e-28
2.12527e-28
2.11397e-28
2.0896e-28
2.03806e-28
1.93186e-28
1.72265e-28
1.34613e-28
7.89579e-29
2.52046e-29
2.69788e-30
1.62275e-29
1.62274e-29
1.62274e-29
1.62273e-29
1.6227e-29
1.62262e-29
1.62244e-29
1.62203e-29
1.62107e-29
1.61891e-29
1.61413e-29
1.60377e-29
1.58189e-29
1.53696e-29
1.4485e-29
1.2854e-29
1.01682e-29
6.54094e-30
3.03242e-30
9.6925e-31
3.26663e-30
3.26662e-30
3.26661e-30
3.26659e-30
3.26653e-30
3.2664e-30
3.26607e-30
3.26532e-30
3.2636e-30
3.25976e-30
3.25135e-30
3.23343e-30
3.1963e-30
3.12203e-30
2.98038e-30
2.72806e-30
2.32297e-30
1.76768e-30
1.16224e-30
6.72485e-31
1.32775e-30
1.32775e-30
1.32774e-30
1.32774e-30
1.32772e-30
1.32768e-30
1.32758e-30
1.32735e-30
1.32683e-30
1.32569e-30
1.32322e-30
1.31805e-30
1.30756e-30
1.28705e-30
1.24892e-30
1.18247e-30
1.07662e-30
9.27672e-31
7.49908e-31
5.77179e-31
8.25464e-31
8.25463e-31
8.25462e-31
8.25459e-31
8.25451e-31
8.25433e-31
8.25391e-31
8.25294e-31
8.25077e-31
8.24604e-31
8.23601e-31
8.21535e-31
8.17428e-31
8.09591e-31
7.95358e-31
7.71066e-31
7.32788e-31
6.7837e-31
6.1047e-31
5.38284e-31
6.46388e-31
6.46388e-31
6.46387e-31
6.46386e-31
6.46382e-31
6.46372e-31
6.4635e-31
6.46301e-31
6.46192e-31
6.45958e-31
6.4547e-31
6.44484e-31
6.42566e-31
6.3899e-31
6.32652e-31
6.22075e-31
6.05682e-31
5.82488e-31
5.53144e-31
5.20708e-31
5.70731e-31
5.70731e-31
5.7073e-31
5.70729e-31
5.70727e-31
5.70722e-31
5.7071e-31
5.70682e-31
5.70623e-31
5.70497e-31
5.7024e-31
5.69729e-31
5.68757e-31
5.66987e-31
5.63923e-31
5.58929e-31
5.51344e-31
5.40757e-31
5.27396e-31
5.12432e-31
5.36024e-31
5.36024e-31
5.36024e-31
5.36023e-31
5.36022e-31
5.36019e-31
5.36012e-31
5.35997e-31
5.35963e-31
5.35894e-31
5.35755e-31
5.35484e-31
5.34978e-31
5.34079e-31
5.32557e-31
5.30134e-31
5.26531e-31
5.21588e-31
5.15413e-31
5.08492e-31
5.19577e-31
5.19577e-31
5.19577e-31
5.19576e-31
5.19576e-31
5.19574e-31
5.1957e-31
5.19561e-31
5.19543e-31
5.19505e-31
5.1943e-31
5.19287e-31
5.19026e-31
5.18571e-31
5.17818e-31
5.16645e-31
5.14936e-31
5.12634e-31
5.09793e-31
5.06625e-31
5.11749e-31
5.11749e-31
5.11749e-31
5.11749e-31
5.11749e-31
5.11748e-31
5.11746e-31
5.11741e-31
5.11731e-31
5.11711e-31
5.11672e-31
5.11598e-31
5.11467e-31
5.11241e-31
5.10876e-31
5.10318e-31
5.09521e-31
5.08464e-31
5.07178e-31
5.05753e-31
5.08068e-31
5.08068e-31
5.08068e-31
5.08068e-31
5.08068e-31
5.08067e-31
5.08066e-31
5.08063e-31
5.08058e-31
5.08048e-31
5.08028e-31
5.07992e-31
5.07927e-31
5.07819e-31
5.07647e-31
5.07388e-31
5.07025e-31
5.06551e-31
5.05981e-31
5.05354e-31
5.06372e-31
5.06372e-31
5.06372e-31
5.06372e-31
5.06372e-31
5.06372e-31
5.06371e-31
5.0637e-31
5.06367e-31
5.06362e-31
5.06352e-31
5.06335e-31
5.06305e-31
5.06254e-31
5.06175e-31
5.06059e-31
5.05898e-31
5.05691e-31
5.05444e-31
5.05175e-31
5.0561e-31
5.0561e-31
5.0561e-31
5.0561e-31
5.0561e-31
5.0561e-31
5.0561e-31
5.05609e-31
5.05608e-31
5.05605e-31
5.05601e-31
5.05593e-31
5.05579e-31
5.05556e-31
5.05522e-31
5.05471e-31
5.05402e-31
5.05313e-31
5.05209e-31
5.05097e-31
5.05277e-31
5.05277e-31
5.05277e-31
5.05277e-31
5.05277e-31
5.05277e-31
5.05277e-31
5.05277e-31
5.05276e-31
5.05275e-31
5.05273e-31
5.0527e-31
5.05264e-31
5.05254e-31
5.05239e-31
5.05217e-31
5.05188e-31
5.05152e-31
5.05109e-31
5.05063e-31
5.05136e-31
5.05136e-31
5.05136e-31
5.05136e-31
5.05136e-31
5.05136e-31
5.05136e-31
5.05136e-31
5.05136e-31
5.05135e-31
5.05134e-31
5.05133e-31
5.0513e-31
5.05126e-31
5.0512e-31
5.05111e-31
5.05099e-31
5.05085e-31
5.05068e-31
5.05049e-31
5.05078e-31
5.05078e-31
5.05078e-31
5.05078e-31
5.05078e-31
5.05078e-31
5.05078e-31
5.05078e-31
5.05078e-31
5.05078e-31
5.05077e-31
5.05077e-31
5.05076e-31
5.05074e-31
5.05071e-31
5.05068e-31
5.05063e-31
5.05058e-31
5.05051e-31
5.05044e-31
5.05055e-31
5.05055e-31
5.05055e-31
5.05055e-31
5.05055e-31
5.05055e-31
5.05055e-31
5.05055e-31
5.05055e-31
5.05055e-31
5.05054e-31
5.05054e-31
5.05054e-31
5.05053e-31
5.05052e-31
5.05051e-31
5.05049e-31
5.05047e-31
5.05044e-31
5.05042e-31
5.05046e-31
5.05046e-31
5.05046e-31
5.05046e-31
5.05046e-31
5.05046e-31
5.05046e-31
5.05046e-31
5.05046e-31
5.05046e-31
5.05046e-31
5.05045e-31
5.05045e-31
5.05045e-31
5.05045e-31
5.05044e-31
5.05044e-31
5.05043e-31
5.05042e-31
5.05041e-31
5.05042e-31
5.05042e-31
5.05042e-31
5.05042e-31
5.05042e-31
5.05042e-31
5.05042e-31
5.05042e-31
5.05042e-31
5.05042e-31
5.05042e-31
5.05042e-31
5.05042e-31
5.05042e-31
5.05042e-31
5.05042e-31
5.05041e-31
5.05041e-31
5.05041e-31
5.0504e-31
5.05041e-31
5.05041e-31
5.05041e-31
5.05041e-31
5.05041e-31
5.05041e-31
5.05041e-31
5.05041e-31
5.05041e-31
5.05041e-31
5.05041e-31
5.05041e-31
5.05041e-31
5.05041e-31
5.05041e-31
5.05041e-31
5.05041e-31
5.05041e-31
5.0504e-31
5.0504e-31
5.05041e-31
5.05041e-31
5.05041e-31
5.05041e-31
5.05041e-31
5.05041e-31
5.05041e-31
5.05041e-31
5.05041e-31
5.05041e-31
5.05041e-31
5.05041e-31
5.05041e-31
5.05041e-31
5.05041e-31
5.0504e-31
5.0504e-31
5.0504e-31
5.0504e-31
5.0504e-31
5.0504e-31
5.0504e-31
5.0504e-31
5.0504e-31
5.0504e-31
5.0504e-31
5.0504e-31
5.0504e-31
5.0504e-31
5.0504e-31
5.0504e-31
5.0504e-31
5.0504e-31
5.0504e-31
5.0504e-31
5.0504e-31
5.0504e-31
5.0504e-31
5.0504e-31
5.0504e-31
5.0504e-31
5.0504e-31
5.0504e-31
5.0504e-31
5.0504e-31
5.0504e-31
5.0504e-31
5.0504e-31
5.0504e-31
5.0504e-31
5.0504e-31
5.0504e-31
5.0504e-31
5.0504e-31
5.0504e-31
5.0504e-31
5.0504e-31
5.0504e-31
5.0504e-31
5.0504e-31
5.0504e-31
5.0504e-31
5.0504e-31
5.0504e-31
5.0504e-31
5.0504e-31
5.0504e-31
5.0504e-31
5.0504e-31
5.0504e-31
5.0504e-31
5.0504e-31
5.0504e-31
5.0504e-31
5.0504e-31
5.0504e-31
5.0504e-31
5.0504e-31
5.0504e-31
5.0504e-31
5.0504e-31
5.0504e-31
5.0504e-31
5.0504e-31
5.0504e-31
5.0504e-31
5.0504e-31
5.0504e-31
5.0504e-31
5.0504e-31
5.0504e-31
5.0504e-31
5.0504e-31
5.0504e-31
5.0504e-31
5.0504e-31
5.0504e-31
5.0504e-31
5.0504e-31
5.0504e-31
5.0504e-31
5.0504e-31
5.0504e-31
5.0504e-31
5.0504e-31
5.0504e-31
5.0504e-31
5.0504e-31
5.0504e-31
5.0504e-31
5.0504e-31
5.0504e-31
5.0504e-31
5.0504e-31
5.0504e-31
5.0504e-31
5.0504e-31
5.0504e-31
5.0504e-31
5.0504e-31
5.0504e-31
5.0504e-31
5.0504e-31
5.0504e-31
5.0504e-31
5.0504e-31
5.0504e-31
5.0504e-31
5.0504e-31
5.0504e-31
5.0504e-31
5.0504e-31
5.0504e-31
5.0504e-31
5.0504e-31
5.0504e-31
5.0504e-31
5.0504e-31
5.0504e-31
5.0504e-31
5.0504e-31
5.0504e-31
5.0504e-31
5.0504e-31
5.0504e-31
5.0504e-31
5.0504e-31
5.0504e-31
5.0504e-31
5.0504e-31
5.0504e-31
5.0504e-31
5.0504e-31
5.0504e-31
5.0504e-31
5.0504e-31
5.0504e-31
5.0504e-31
5.0504e-31
5.0504e-31
5.0504e-31
5.0504e-31
5.0504e-31
5.0504e-31
5.0504e-31
5.0504e-31
5.0504e-31
5.0504e-31
5.0504e-31
5.0504e-31
5.0504e-31
5.0504e-31
5.0504e-31
5.0504e-31
5.0504e-31
5.0504e-31
5.0504e-31
5.0504e-31
5.0504e-31
5.0504e-31
5.0504e-31
5.0504e-31
5.0504e-31
5.0504e-31
5.0504e-31
5.0504e-31
5.0504e-31
5.0504e-31
5.0504e-31
5.0504e-31
5.0504e-31
5.0504e-31
5.0504e-31
5.0504e-31
5.0504e-31
5.0504e-31
5.0504e-31
5.0504e-31
5.0504e-31
5.0504e-31
5.0504e-31
5.0504e-31
5.0504e-31
5.0504e-31
5.0504e-31
5.0504e-31
5.0504e-31
5.0504e-31
5.0504e-31
5.0504e-31
5.0504e-31
5.0504e-31
5.0504e-31
5.0504e-31
5.0504e-31
5.0504e-31
5.0504e-31
5.0504e-31
5.0504e-31
5.0504e-31
5.0504e-31
5.0504e-31
5.0504e-31
5.0504e-31
5.0504e-31
5.0504e-31
5.0504e-31
5.0504e-31
5.0504e-31
5.0504e-31
5.0504e-31
5.0504e-31
5.0504e-31
5.0504e-31
5.0504e-31
5.0504e-31
5.0504e-31
5.0504e-31
5.0504e-31
5.0504e-31
5.0504e-31
5.0504e-31
5.0504e-31
5.0504e-31
5.0504e-31
5.0504e-31
5.0504e-31
5.0504e-31
5.0504e-31
5.0504e-31
5.0504e-31
5.0504e-31
5.0504e-31
5.0504e-31
5.0504e-31
5.0504e-31
5.0504e-31
5.0504e-31
5.0504e-31
5.0504e-31
5.0504e-31
5.0504e-31
5.0504e-31
5.0504e-31
5.0504e-31
5.0504e-31
5.0504e-31
5.0504e-31
5.0504e-31
5.0504e-31
5.0504e-31
5.0504e-31
5.0504e-31
5.0504e-31
5.0504e-31
5.0504e-31
5.0504e-31
5.0504e-31
5.0504e-31
5.0504e-31
5.0504e-31
5.0504e-31
5.0504e-31
5.0504e-31
5.0504e-31
5.0504e-31
5.0504e-31
5.0504e-31
5.0504e-31
5.0504e-31
5.0504e-31
5.0504e-31
5.0504e-31
5.0504e-31
5.0504e-31
5.0504e-31
5.0504e-31
5.0504e-31
5.0504e-31
5.0504e-31
5.0504e-31
5.0504e-31
5.0504e-31
5.0504e-31
5.0504e-31
5.0504e-31
5.0504e-31
5.0504e-31
5.0504e-31
5.0504e-31
5.0504e-31
5.0504e-31
5.0504e-31
5.0504e-31
5.0504e-31
5.0504e-31
5.0504e-31
5.0504e-31
5.0504e-31
5.0504e-31
5.0504e-31
5.0504e-31
5.0504e-31
5.0504e-31
5.0504e-31
5.0504e-31
5.0504e-31
5.0504e-31
5.0504e-31
5.0504e-31
5.0504e-31
5.0504e-31
5.0504e-31
5.0504e-31
5.0504e-31
5.0504e-31
5.0504e-31
5.0504e-31
5.0504e-31
5.0504e-31
5.0504e-31
5.0504e-31
5.0504e-31
5.0504e-31
5.0504e-31
5.0504e-31
5.0504e-31
5.0504e-31
5.0504e-31
5.0504e-31
5.0504e-31
5.0504e-31
5.0504e-31
5.0504e-31
5.0504e-31
5.0504e-31
5.0504e-31
5.0504e-31
5.0504e-31
5.0504e-31
5.0504e-31
5.0504e-31
5.0504e-31
5.0504e-31
5.0504e-31
5.0504e-31
5.0504e-31
5.0504e-31
5.0504e-31
5.0504e-31
5.0504e-31
5.0504e-31
5.0504e-31
5.0504e-31
5.0504e-31
5.0504e-31
5.0504e-31
5.0504e-31
5.0504e-31
5.0504e-31
5.0504e-31
5.0504e-31
5.0504e-31
5.0504e-31
5.0504e-31
5.0504e-31
5.0504e-31
5.0504e-31
5.0504e-31
5.0504e-31
5.0504e-31
5.0504e-31
5.0504e-31
5.0504e-31
5.0504e-31
5.0504e-31
5.0504e-31
5.0504e-31
5.0504e-31
5.0504e-31
5.0504e-31
5.0504e-31
5.0504e-31
5.0504e-31
5.0504e-31
5.0504e-31
5.0504e-31
5.0504e-31
5.0504e-31
5.0504e-31
5.0504e-31
5.0504e-31
5.0504e-31
5.0504e-31
5.0504e-31
5.0504e-31
5.0504e-31
5.0504e-31
5.0504e-31
5.0504e-31
5.0504e-31
5.0504e-31
5.0504e-31
5.0504e-31
5.0504e-31
5.0504e-31
5.0504e-31
5.0504e-31
5.0504e-31
5.0504e-31
5.0504e-31
5.0504e-31
5.0504e-31
5.0504e-31
5.0504e-31
5.0504e-31
5.0504e-31
5.0504e-31
5.0504e-31
5.0504e-31
5.0504e-31
5.0504e-31
5.0504e-31
5.0504e-31
5.0504e-31
5.0504e-31
5.0504e-31
5.0504e-31
5.0504e-31
5.0504e-31
5.0504e-31
5.0504e-31
5.0504e-31
5.0504e-31
5.0504e-31
5.0504e-31
5.0504e-31
5.0504e-31
5.0504e-31
5.0504e-31
5.0504e-31
5.0504e-31
5.0504e-31
5.0504e-31
5.0504e-31
5.0504e-31
5.0504e-31
5.0504e-31
5.0504e-31
5.0504e-31
5.0504e-31
5.0504e-31
5.0504e-31
5.0504e-31
5.0504e-31
5.0504e-31
5.0504e-31
5.0504e-31
5.0504e-31
5.0504e-31
)
;

boundaryField
{
    topWall
    {
        type            zeroGradient;
    }
    bottomWall
    {
        type            zeroGradient;
    }
    sideWallL
    {
        type            symmetry;
    }
    sideWallR
    {
        type            zeroGradient;
    }
    frontAndBack
    {
        type            empty;
    }
}


// ************************************************************************* //
