/*--------------------------------*- C++ -*----------------------------------*\
  =========                 |
  \\      /  F ield         | OpenFOAM: The Open Source CFD Toolbox
   \\    /   O peration     | Website:  https://openfoam.org
    \\  /    A nd           | Version:  7
     \\/     M anipulation  |
\*---------------------------------------------------------------------------*/
FoamFile
{
    version     2.0;
    format      ascii;
    class       volScalarField;
    location    "4";
    object      T;
}
// * * * * * * * * * * * * * * * * * * * * * * * * * * * * * * * * * * * * * //

dimensions      [0 0 0 1 0 0 0];

internalField   nonuniform List<scalar> 
900
(
305.823
305.823
305.823
305.823
305.823
305.823
305.823
305.823
305.822
305.82
305.816
305.808
305.79
305.752
305.673
305.499
305.1
304.093
301.201
291.528
295.248
295.248
295.248
295.248
295.247
295.247
295.247
295.246
295.243
295.238
295.227
295.205
295.158
295.061
294.862
294.453
293.604
291.811
287.991
280.048
287.667
287.667
287.667
287.667
287.667
287.666
287.666
287.664
287.661
287.654
287.639
287.608
287.545
287.42
287.175
286.7
285.794
284.108
281.102
276.207
282.392
282.392
282.392
282.392
282.392
282.391
282.39
282.389
282.385
282.377
282.361
282.329
282.265
282.141
281.909
281.483
280.73
279.456
277.448
274.621
278.834
278.834
278.834
278.834
278.834
278.834
278.833
278.831
278.828
278.821
278.806
278.777
278.721
278.617
278.428
278.1
277.553
276.696
275.456
273.86
276.513
276.513
276.513
276.513
276.513
276.512
276.512
276.51
276.507
276.501
276.49
276.466
276.423
276.344
276.207
275.978
275.616
275.08
274.35
273.463
275.049
275.049
275.049
275.048
275.048
275.048
275.048
275.047
275.044
275.04
275.031
275.014
274.983
274.929
274.837
274.689
274.465
274.147
273.733
273.248
274.156
274.156
274.156
274.156
274.156
274.156
274.156
274.155
274.153
274.15
274.144
274.133
274.112
274.077
274.02
273.93
273.798
273.618
273.39
273.131
273.632
273.632
273.632
273.632
273.632
273.631
273.631
273.631
273.63
273.628
273.624
273.616
273.604
273.583
273.549
273.497
273.423
273.325
273.204
273.068
273.334
273.334
273.334
273.334
273.334
273.334
273.333
273.333
273.333
273.331
273.329
273.325
273.317
273.305
273.286
273.258
273.218
273.166
273.104
273.035
273.171
273.171
273.171
273.171
273.171
273.171
273.17
273.17
273.17
273.169
273.168
273.165
273.161
273.155
273.144
273.129
273.109
273.083
273.051
273.017
273.084
273.084
273.084
273.084
273.084
273.084
273.084
273.084
273.084
273.084
273.083
273.082
273.079
273.076
273.071
273.063
273.053
273.04
273.025
273.008
273.04
273.04
273.04
273.04
273.04
273.04
273.04
273.04
273.04
273.04
273.04
273.039
273.038
273.036
273.033
273.03
273.025
273.019
273.012
273.004
273.019
273.019
273.019
273.019
273.019
273.019
273.019
273.019
273.019
273.019
273.018
273.018
273.017
273.017
273.015
273.014
273.011
273.009
273.005
273.002
273.008
273.008
273.008
273.008
273.008
273.008
273.008
273.008
273.008
273.008
273.008
273.008
273.008
273.007
273.007
273.006
273.005
273.004
273.002
273.001
273.004
273.004
273.004
273.004
273.004
273.004
273.004
273.004
273.004
273.004
273.004
273.003
273.003
273.003
273.003
273.003
273.002
273.002
273.001
273
273.002
273.002
273.002
273.002
273.002
273.002
273.002
273.002
273.002
273.002
273.002
273.001
273.001
273.001
273.001
273.001
273.001
273.001
273
273
273.001
273.001
273.001
273.001
273.001
273.001
273.001
273.001
273.001
273.001
273.001
273.001
273.001
273.001
273.001
273
273
273
273
273
273
273
273
273
273
273
273
273
273
273
273
273
273
273
273
273
273
273
273
273
273
273
273
273
273
273
273
273
273
273
273
273
273
273
273
273
273
273
273
273
273
273
273
273
273
273
273
273
273
273
273
273
273
273
273
273
273
273
273
273
273
273
273
273
273
273
273
273
273
273
273
273
273
273
273
273
273
273
273
273
273
273
273
273
273
273
273
273
273
273
273
273
273
273
273
273
273
273
273
273
273
273
273
273
273
273
273
273
273
273
273
273
273
273
273
273
273
273
273
273
273
273
273
273
273
273
273
273
273
273
273
273
273
273
273
273
273
273
273
273
273
273
273
273
273
273
273
273
273
273
273
273
273
273
273
273
273
273
273
273
273
273
273
273
273
273
273
273
273
273
273
273
273
273
273
273
273
273
273
273
273
273
273
273
273
273
273
273
273
273
273
273
273
273
273
273
273
273
273
273
273
273
273
273
273
273
273
273
273
273
273
273
273
273
273
273
273
273
273
273
273
273
273
273
273
273
273
273
273
273
273
273
273
273
273
273
273
273
273
273
273
273
273
273
273
273
273
273
273
273
273
273
273
273
273
273
273
273
273
273
273
273
273
273
273
273
273
273
273
273
273
273
273
273
273
273
273
273
273
273
273
273
273
273
273
273
273
273
273
273
273
273
273
273
273
273
273
273
273
273
273
273
273
273
273
273
273
273
273
273
273
273
273
273
273
273
273
273
273
273
273
273
273
273
273
273
273
273
273
273
273
273
273
273
273
273
273
273
273
273
273
273
273
273
273
273
273
273
273
273
273
273
273
273
273
273
273
273
273
273
273
273
273
273
273
273
273
273
273
273
273
273
273
273
273
273
273
273
273
273
273
273
273
273
273
273
273
273
273
273
273
273
273
273
273
273
273
273
273
273
273
273
273
273
273
273
273
273
273
273
273
273
273
273
273
273
273
273
273
273
273
273
273
273
273
273
273
273
273
273
273
273
273
273
273
273
273
273
273
273
273
273
273
273
273
273
273
273
273
273
273
273
273
273
273
273
273
273
273
273
273
273
273
273
273
273
273
273
273
273
273
273
273
273
273
273
273
273
273
273
273
273
273
273
273
273
273
273
273
273
273
273
273
273
273
273
273
273
273
273
273
273
273
273
273
273
273
273
273
273
273
273
273
273
273
273
273
273
273
273
273
273
273
273
273
273
273
273
273
273
273
273
273
273
273
273
273
273
273
273
)
;

boundaryField
{
    topWall
    {
        type            zeroGradient;
    }
    bottomWall
    {
        type            codedFixedValue;
        value           uniform 313;
        name            heating;
        code            #{
            const scalar t = this->db().time().value();
            const scalar Ttemp = 273 + 10*t;
            operator==(Ttemp);
        #};
    }
    sideWallL
    {
        type            symmetry;
    }
    sideWallR
    {
        type            fixedValue;
        value           uniform 273;
    }
    frontAndBack
    {
        type            empty;
    }
}


// ************************************************************************* //
