/*--------------------------------*- C++ -*----------------------------------*\
  =========                 |
  \\      /  F ield         | OpenFOAM: The Open Source CFD Toolbox
   \\    /   O peration     | Website:  https://openfoam.org
    \\  /    A nd           | Version:  7
     \\/     M anipulation  |
\*---------------------------------------------------------------------------*/
FoamFile
{
    version     2.0;
    format      ascii;
    class       volScalarField;
    location    "13";
    object      gradTx;
}
// * * * * * * * * * * * * * * * * * * * * * * * * * * * * * * * * * * * * * //

dimensions      [0 -1 0 1 0 0 0];

internalField   nonuniform List<scalar> 
900
(
-4.80462
-15.1198
-27.6583
-44.2708
-67.4294
-100.628
-148.991
-220.227
-326.238
-485.896
-730.156
-1112.04
-1727.73
-2765.62
-4634.81
-8349.08
-16837.5
-39952.5
-115048
-390414
-13.811
-43.4461
-79.415
-126.972
-193.102
-287.621
-424.819
-626.018
-923.741
-1368.78
-2042.67
-3080.74
-4716.89
-7374.97
-11864.7
-19814.8
-34621.5
-63265.3
-117813
-202078
-21.6013
-67.9036
-123.944
-197.746
-299.883
-445.052
-654.368
-958.821
-1404.71
-2062.42
-3040.93
-4512.42
-6754.88
-10225.8
-15686.6
-24392.9
-38291.8
-59821.9
-89719.8
-118604
-27.7015
-86.9913
-158.466
-252.068
-380.738
-562.193
-821.416
-1194.26
-1732.82
-2513.47
-3649.15
-5307.8
-7739.42
-11312.6
-16554
-24157
-34851.9
-48861.4
-64442.8
-75379.8
-31.8405
-99.8631
-181.46
-287.578
-432.246
-634.312
-919.759
-1324.88
-1900.64
-2718.74
-3879.67
-5522.88
-7837.88
-11071.4
-15517
-21455.9
-28985.3
-37644.1
-45811.3
-50283.2
-33.9681
-106.382
-192.753
-304.184
-454.657
-662.553
-952.566
-1358.14
-1924.54
-2712.49
-3802.29
-5297.14
-7323.53
-10023.2
-13525.9
-17886.5
-22963.2
-28232.2
-32608.2
-34524.8
-34.2338
-107.044
-193.349
-303.724
-451.234
-652.656
-929.901
-1311.67
-1835.27
-2548.3
-3509.76
-4789.32
-6462.46
-8597.81
-11231
-14318.6
-17670.2
-20874.9
-23276.7
-24108
-32.9355
-102.813
-185.098
-289.365
-427.207
-613.136
-865.557
-1207.74
-1668.66
-2283.35
-3092.29
-4138.76
-5462.64
-7088.74
-9007.22
-11145.7
-13336.8
-15296.4
-16642.5
-16990.6
-30.4563
-94.912
-170.301
-264.929
-388.645
-553.464
-774.158
-1068.73
-1458.61
-1968.26
-2623.79
-3449.89
-4464.25
-5668.65
-7036.32
-8496.86
-9923.21
-11129.9
-11896.5
-12025.2
-27.2023
-84.6266
-151.337
-234.279
-341.515
-482.626
-669.029
-914.118
-1233.09
-1642.25
-2157.47
-2791.42
-3549.31
-4422.77
-5382.45
-6370.71
-7297.66
-8045.57
-8486.91
-8517.27
-23.5522
-73.1477
-130.378
-200.867
-291.007
-408.197
-560.977
-758.982
-1012.61
-1332.27
-1727
-2202.32
-2757.17
-3380.15
-4045.4
-4709.56
-5311.48
-5777.43
-6033.14
-6022.18
-19.824
-61.4677
-109.209
-167.473
-241.187
-335.909
-457.848
-613.735
-810.461
-1054.39
-1350.29
-1699.72
-2099.09
-2537.34
-2993.94
-3437.81
-3828.37
-4119.68
-4268.18
-4242.72
-16.2583
-50.3321
-89.15
-136.105
-194.902
-269.614
-364.645
-484.578
-633.846
-816.179
-1033.79
-1286.33
-1569.58
-1874.25
-2184.95
-2480.12
-2733.21
-2915.71
-3001.82
-2974.1
-13.0166
-40.2363
-71.0593
-108.028
-153.867
-211.494
-283.967
-374.337
-485.374
-619.155
-776.495
-956.246
-1154.53
-1364.09
-1573.84
-1769.16
-1932.86
-2047.24
-2096.94
-2072.06
-10.1894
-31.452
-55.392
-83.8745
-118.861
-162.404
-216.584
-283.389
-364.504
-461.015
-573.023
-699.202
-836.354
-979.066
-1119.6
-1248.19
-1353.78
-1425.41
-1453.87
-1433.49
-7.80899
-24.0721
-42.2845
-63.7876
-89.9686
-122.243
-162.004
-210.521
-268.792
-337.333
-415.93
-503.365
-597.166
-693.443
-786.901
-871.091
-938.97
-983.737
-999.857
-984.05
-5.86587
-18.0595
-31.6456
-47.5716
-66.8013
-90.2961
-118.972
-153.627
-194.834
-242.8
-297.209
-357.059
-420.521
-484.875
-546.555
-601.357
-644.81
-672.704
-681.702
-669.901
-4.32298
-13.2937
-23.2416
-34.8243
-48.7008
-65.5141
-85.8581
-110.225
-138.933
-172.034
-209.216
-249.704
-292.19
-334.813
-375.207
-410.656
-438.337
-455.651
-460.581
-452.02
-3.12832
-9.60949
-16.7648
-25.0436
-34.8897
-46.7268
-60.9348
-77.8126
-97.5298
-120.068
-145.162
-172.239
-200.39
-228.361
-254.606
-277.382
-294.92
-305.615
-308.253
-302.188
-2.2245
-6.82622
-11.8856
-17.7051
-24.5791
-32.7833
-42.5574
-54.08
-67.4371
-82.5855
-99.316
-117.222
-135.684
-153.871
-170.783
-185.313
-196.356
-202.929
-204.297
-200.084
-1.55532
-4.76826
-8.28722
-12.3127
-17.0374
-22.6383
-29.2648
-37.0221
-45.9506
-56.0039
-67.0266
-78.7371
-90.7206
-102.436
-113.241
-122.441
-129.349
-133.364
-134.044
-131.171
-1.06984
-3.27701
-5.68581
-8.42728
-11.6259
-15.394
-19.8234
-24.9751
-30.866
-37.4556
-44.633
-52.2075
-59.9064
-67.3812
-74.2253
-80.0043
-84.2952
-86.7319
-87.0496
-85.1214
-0.724331
-2.21689
-3.84041
-5.6794
-7.81323
-10.3123
-13.2324
-16.6085
-20.4459
-24.7127
-29.3322
-34.1779
-39.0733
-43.7965
-48.0928
-51.693
-54.3383
-55.8069
-55.9409
-54.6667
-0.482905
-1.47687
-2.55474
-3.77027
-5.17346
-6.80788
-8.7072
-10.8909
-13.3594
-16.089
-19.0281
-22.0942
-25.1746
-28.1301
-30.8022
-33.026
-34.6439
-35.5226
-35.5682
-34.7384
-0.317144
-0.969252
-1.67438
-2.46633
-3.37617
-4.4306
-5.64965
-7.04407
-8.61233
-10.3378
-12.1863
-14.1052
-16.0234
-17.8543
-19.5007
-20.8621
-21.8435
-22.3653
-22.3718
-21.8389
-0.205242
-0.626856
-1.08155
-1.59027
-2.17215
-2.84331
-3.61558
-4.49477
-5.47894
-6.55676
-7.7062
-8.89393
-10.0758
-11.1987
-12.2034
-13.0293
-13.6195
-13.9268
-13.9185
-13.5809
-0.130925
-0.399637
-0.68872
-1.01101
-1.37812
-1.79972
-2.28268
-2.8301
-3.44025
-4.10561
-4.8122
-5.5393
-6.25983
-6.94144
-7.54854
-8.04487
-8.39672
-8.57622
-8.56435
-8.35323
-0.0823461
-0.251215
-0.432472
-0.633886
-0.862427
-1.12382
-1.42203
-1.75867
-2.13238
-2.53832
-2.96775
-3.40797
-3.84254
-4.25204
-4.61525
-4.91069
-5.11853
-5.22248
-5.21153
-5.08124
-0.0510776
-0.155743
-0.267849
-0.392041
-0.532454
-0.692444
-0.87427
-1.07875
-1.30492
-1.54969
-1.80772
-2.0713
-2.33059
-2.57405
-2.78916
-2.96331
-3.08495
-3.14462
-3.13601
-3.05662
-0.0312521
-0.0952469
-0.163656
-0.239224
-0.324377
-0.421059
-0.530546
-0.653244
-0.788487
-0.934372
-1.08765
-1.24372
-1.39676
-1.53999
-1.66608
-1.76772
-1.83823
-1.87219
-1.86597
-1.8182
-0.0188659
-0.057472
-0.0986655
-0.144049
-0.195029
-0.252721
-0.317837
-0.390572
-0.470489
-0.556428
-0.646448
-0.737838
-0.827188
-0.910554
-0.983705
-1.04243
-1.08291
-1.10205
-1.09781
-1.06942
-0.0112383
-0.0342217
-0.0587037
-0.0856088
-0.115744
-0.149742
-0.187996
-0.230595
-0.277263
-0.327303
-0.379573
-0.432493
-0.48409
-0.532098
-0.574094
-0.607683
-0.630694
-0.641383
-0.638605
-0.621943
-0.00660735
-0.0201123
-0.0344748
-0.0502224
-0.0678125
-0.0876001
-0.109801
-0.134453
-0.161385
-0.190186
-0.220193
-0.250496
-0.279967
-0.307316
-0.331173
-0.350186
-0.363138
-0.369051
-0.367291
-0.357629
-0.00383461
-0.0116681
-0.0199866
-0.0290876
-0.0392276
-0.0506036
-0.0633323
-0.0774293
-0.0927905
-0.109177
-0.126208
-0.143367
-0.160015
-0.175428
-0.188837
-0.199489
-0.206705
-0.209945
-0.208859
-0.203325
-0.00219708
-0.00668311
-0.0114403
-0.0166345
-0.0224078
-0.0288685
-0.0360791
-0.0440451
-0.0527046
-0.0619207
-0.071478
-0.0810856
-0.0903873
-0.0989795
-0.106436
-0.112341
-0.116321
-0.11808
-0.117425
-0.114293
-0.00124297
-0.00377972
-0.00646631
-0.00939409
-0.0126411
-0.016266
-0.0203022
-0.0247507
-0.0295758
-0.0346998
-0.0400025
-0.0453222
-0.0504621
-0.0552001
-0.0593025
-0.0625418
-0.0647144
-0.0656593
-0.0652731
-0.0635214
-0.000694427
-0.00211104
-0.00360951
-0.0052396
-0.00704363
-0.00905318
-0.0112857
-0.0137409
-0.0163984
-0.0192148
-0.0221238
-0.0250365
-0.0278455
-0.0304298
-0.0326626
-0.0344209
-0.0355947
-0.0360974
-0.0358738
-0.0349058
-0.000383178
-0.00116453
-0.00199008
-0.00288665
-0.00387693
-0.00497773
-0.00619808
-0.00753748
-0.0089843
-0.0105148
-0.0120926
-0.0136698
-0.015188
-0.0165823
-0.0177846
-0.0187288
-0.0193565
-0.0196213
-0.0194941
-0.0189654
-0.00020886
-0.000634588
-0.00108392
-0.00157114
-0.00210828
-0.00270419
-0.00336353
-0.00408578
-0.00486453
-0.00568683
-0.00653314
-0.00737766
-0.00818931
-0.00893342
-0.00957384
-0.0100756
-0.0104078
-0.0105459
-0.0104747
-0.0101893
-0.000112493
-0.000341712
-0.000583397
-0.00084507
-0.00113305
-0.00145195
-0.00180413
-0.00218922
-0.0026037
-0.00304064
-0.00348961
-0.00393693
-0.00436618
-0.00475907
-0.00509663
-0.0053605
-0.00553446
-0.00560582
-0.00556657
-0.00541427
-5.99286e-05
-0.000181998
-0.000310584
-0.000449612
-0.000602363
-0.000771213
-0.000957353
-0.00116054
-0.00137887
-0.00160867
-0.00184443
-0.00207899
-0.00230374
-0.00250914
-0.00268532
-0.00282274
-0.002913
-0.00294951
-0.00292818
-0.00284775
-3.16853e-05
-9.62055e-05
-0.000164108
-0.000237424
-0.000317848
-0.0004066
-0.000504272
-0.00061071
-0.000724903
-0.000844908
-0.000967851
-0.00108999
-0.00120686
-0.00131352
-0.00140485
-0.00147594
-0.00152246
-0.00154103
-0.00152955
-0.00148738
-1.68448e-05
-5.11335e-05
-8.71849e-05
-0.00012606
-0.000168639
-0.000215545
-0.000267078
-0.000323142
-0.000383198
-0.000446216
-0.000510683
-0.000574639
-0.000635753
-0.000691446
-0.000739062
-0.000776048
-0.000800161
-0.000809654
-0.000803444
-0.000781219
-9.43696e-06
-2.86402e-05
-4.88132e-05
-7.05373e-05
-9.42915e-05
-0.000120416
-0.000149066
-0.000180183
-0.000213461
-0.000248331
-0.000283948
-0.000319234
-0.000352904
-0.000383544
-0.000409697
-0.000429968
-0.000443135
-0.000448246
-0.00044471
-0.000432365
-6.38426e-06
-1.93703e-05
-3.30013e-05
-4.76661e-05
-6.36774e-05
-8.1262e-05
-0.000100522
-0.000121412
-0.000143721
-0.000167068
-0.000190888
-0.00021446
-0.000236927
-0.000257346
-0.000274753
-0.000288221
-0.000296942
-0.000300287
-0.000297866
-0.000289575
)
;

boundaryField
{
    topWall
    {
        type            calculated;
        value           nonuniform List<scalar> 
20
(
-6.38426e-06
-1.93703e-05
-3.30013e-05
-4.76661e-05
-6.36774e-05
-8.1262e-05
-0.000100522
-0.000121412
-0.000143721
-0.000167068
-0.000190888
-0.00021446
-0.000236927
-0.000257346
-0.000274753
-0.000288221
-0.000296942
-0.000300287
-0.000297866
-0.000289575
)
;
    }
    bottomWall
    {
        type            calculated;
        value           nonuniform List<scalar> 
20
(
-4.80462
-15.1198
-27.6583
-44.2708
-67.4294
-100.628
-148.991
-220.227
-326.238
-485.896
-730.156
-1112.04
-1727.73
-2765.62
-4634.81
-8349.08
-16837.5
-39952.5
-115048
-390414
)
;
    }
    sideWallL
    {
        type            symmetry;
    }
    sideWallR
    {
        type            calculated;
        value           nonuniform List<scalar> 
45
(
-607811
-250747
-130580
-78538.4
-51091.4
-34651.9
-24035.8
-16871.5
-11909.2
-8419.34
-5944.72
-4183.72
-2930.3
-2040.16
-1410.65
-967.925
-658.669
-444.295
-296.939
-196.561
-128.834
-83.5895
-53.6742
-34.1028
-21.4366
-13.3292
-8.19763
-4.98615
-2.99917
-1.7839
-1.04918
-0.610137
-0.350823
-0.199446
-0.112108
-0.0623045
-0.0342359
-0.0186009
-0.00999316
-0.0053099
-0.00279279
-0.00145865
-0.000766112
-0.000423997
-0.000283968
)
;
    }
    frontAndBack
    {
        type            empty;
    }
}


// ************************************************************************* //
