/*--------------------------------*- C++ -*----------------------------------*\
  =========                 |
  \\      /  F ield         | OpenFOAM: The Open Source CFD Toolbox
   \\    /   O peration     | Website:  https://openfoam.org
    \\  /    A nd           | Version:  7
     \\/     M anipulation  |
\*---------------------------------------------------------------------------*/
FoamFile
{
    version     2.0;
    format      ascii;
    class       volScalarField;
    location    "13";
    object      gradTy;
}
// * * * * * * * * * * * * * * * * * * * * * * * * * * * * * * * * * * * * * //

dimensions      [0 -1 0 1 0 0 0];

internalField   nonuniform List<scalar> 
900
(
-123114
-123132
-123172
-123239
-123343
-123500
-123732
-124074
-124578
-125324
-126433
-128097
-130625
-134541
-140766
-151041
-168930
-202500
-272148
-435360
-102863
-102879
-102915
-102976
-103069
-103208
-103413
-103714
-104152
-104792
-105728
-107103
-109129
-112130
-116589
-123182
-132633
-144636
-152502
-119308
-85387.1
-85401
-85430.7
-85480.1
-85555.8
-85667.7
-85830.4
-86064.3
-86398.6
-86873.4
-87543.3
-88479.9
-89770.4
-91502.4
-93708
-96191.7
-98050.2
-96422.2
-83646.3
-43052.3
-70373.5
-70383.8
-70405.5
-70441.3
-70495.3
-70573.6
-70684.6
-70839
-71050.6
-71335
-71706.9
-72173.7
-72717.4
-73256.7
-73563
-73087.1
-70626
-63780.7
-48448.3
-19872.2
-57548.5
-57554.7
-57567.9
-57589
-57620
-57663
-57720.3
-57794.1
-57884.2
-57985.8
-58083.3
-58139
-58072.6
-57723.1
-56783.1
-54694.9
-50512.6
-42806.2
-29883.4
-10971.6
-46666.9
-46669.3
-46674.1
-46681.2
-46690.3
-46700.2
-46708.6
-46710.3
-46695.4
-46645
-46525
-46275.1
-45791.4
-44899.6
-43317.8
-40613.6
-36180.5
-29298.5
-19411.2
-6763.89
-37505.7
-37504.7
-37502.2
-37497.1
-37487.4
-37469.6
-37437.9
-37382.6
-37287.5
-37126.7
-36858.4
-36416.7
-35700
-34555.8
-32765.6
-30037.2
-26024.8
-20410.8
-13089.1
-4445.11
-29859.5
-29855.7
-29847.4
-29832.7
-29808.6
-29770.1
-29709.4
-29614.4
-29466.5
-29237.7
-28886.4
-28351.7
-27547
-26353.5
-24617.8
-22158.9
-18796.1
-14411.9
-9051.21
-3031.66
-23538
-23532.2
-23519.8
-23498.5
-23464.7
-23412.8
-23334.2
-23216.3
-23040.6
-22780.7
-22399.5
-21845.9
-21052.1
-19932.5
-18386.1
-16307.7
-13611.2
-10268.7
-6360.32
-2113.04
-18364.6
-18357.7
-18342.8
-18317.8
-18278.8
-18220.1
-18133.5
-18007
-17823.8
-17561
-17187.8
-16664.2
-15940.2
-14957.1
-13651.7
-11966.2
-9864.4
-7354.46
-4511.88
-1491.11
-14176.5
-14169.1
-14153.3
-14127
-14086.5
-14026.6
-13939.8
-13815.5
-13639.4
-13392.8
-13051.6
-12585.7
-11959.9
-11135.4
-10074.4
-8746.92
-7141.53
-5277.63
-3215.64
-1058.9
-10824.2
-10816.9
-10801.4
-10775.7
-10736.6
-10679.5
-10598
-10483.2
-10323.6
-10104.5
-9807.52
-9411.24
-8891.53
-8223.66
-7385.63
-6363.2
-5156.19
-3784.93
-2294.47
-753.606
-8172.33
-8165.52
-8151.1
-8127.37
-8091.66
-8040.05
-7967.24
-7866.17
-7727.84
-7541.09
-7292.6
-6967.29
-6549.13
-6022.74
-5375.88
-4602.65
-3707.22
-2707.13
-1634.78
-535.89
-6099.91
-6093.84
-6081.03
-6060.08
-6028.8
-5984.04
-5921.59
-5835.98
-5720.4
-5566.64
-5365.24
-5105.87
-4778.11
-4372.64
-3882.93
-3307.29
-2651
-1927.86
-1160.7
-379.913
-4500.33
-4495.12
-4484.16
-4466.35
-4439.92
-4402.45
-4350.67
-4280.48
-4186.86
-4063.9
-3905.04
-3703.34
-3452.16
-3145.97
-2781.51
-2359.03
-1883.45
-1365.14
-819.946
-268.06
-3281.24
-3276.92
-3267.85
-3253.17
-3231.55
-3201.11
-3159.44
-3103.5
-3029.68
-2933.83
-2811.46
-2658.02
-2469.32
-2242.18
-1975.13
-1669.13
-1328.3
-960.164
-575.593
-187.994
-2364
-2360.52
-2353.22
-2341.47
-2324.26
-2300.2
-2267.53
-2224.06
-2167.23
-2094.2
-2001.94
-1887.49
-1748.27
-1582.51
-1389.64
-1170.82
-929.209
-670.184
-401.122
-130.908
-1682.77
-1680.03
-1674.32
-1665.15
-1651.79
-1633.24
-1608.22
-1575.2
-1532.41
-1477.9
-1409.68
-1325.85
-1224.86
-1105.72
-968.345
-813.772
-644.37
-463.882
-277.281
-90.4324
-1183.4
-1181.3
-1176.93
-1169.95
-1159.82
-1145.83
-1127.08
-1102.53
-1070.94
-1031.03
-981.49
-921.129
-849.009
-764.623
-668.067
-560.198
-442.724
-318.217
-190.002
-61.9333
-822.126
-820.553
-817.284
-812.075
-804.553
-794.223
-780.465
-762.553
-739.674
-710.974
-675.61
-632.839
-582.108
-523.169
-456.183
-381.805
-301.242
-216.235
-128.99
-42.0263
-564.182
-563.027
-560.632
-556.827
-551.355
-543.874
-533.965
-521.14
-504.86
-484.569
-459.73
-429.886
-394.716
-354.108
-308.226
-257.551
-202.917
-145.49
-86.72
-28.243
-382.434
-381.603
-379.883
-377.156
-373.249
-367.932
-360.923
-351.9
-340.51
-326.395
-309.218
-288.7
-264.659
-237.053
-206.02
-171.905
-135.272
-96.8934
-57.7143
-18.79
-256.058
-255.471
-254.257
-252.34
-249.6
-245.887
-241.014
-234.771
-226.93
-217.264
-205.563
-191.659
-175.45
-156.928
-136.199
-113.504
-89.2207
-63.8531
-38.0114
-12.3717
-169.338
-168.93
-168.09
-166.764
-164.877
-162.327
-158.995
-154.745
-149.431
-142.911
-135.056
-125.765
-114.983
-102.715
-89.041
-74.1232
-58.2101
-41.6285
-24.7684
-8.05939
-110.611
-110.334
-109.761
-108.86
-107.581
-105.859
-103.617
-100.767
-97.2205
-92.887
-87.6882
-81.5651
-74.488
-66.4663
-57.5566
-47.8674
-37.5599
-26.8431
-15.9641
-5.19339
-71.363
-71.1768
-70.7934
-70.1911
-69.338
-68.193
-66.7072
-64.8261
-62.4932
-59.654
-56.261
-52.2798
-47.6951
-42.5162
-36.7822
-30.564
-23.965
-17.1172
-10.1759
-3.30974
-45.4754
-45.3525
-45.0998
-44.7034
-44.1434
-43.3937
-42.4239
-41.2002
-39.6878
-37.8536
-35.6694
-33.1152
-30.1834
-26.8819
-23.2367
-19.2937
-15.1182
-10.7928
-6.41387
-2.08577
-28.623
-28.5431
-28.3791
-28.1222
-27.7601
-27.2766
-26.6528
-25.8682
-24.9015
-23.7328
-22.3456
-20.7284
-18.8776
-16.7991
-14.5102
-12.0397
-9.4286
-6.72796
-3.997
-1.29961
-17.7948
-17.7437
-17.6388
-17.4749
-17.2442
-16.9369
-16.5414
-16.0454
-15.436
-14.7015
-13.832
-12.8214
-11.6678
-10.3756
-8.95575
-7.42643
-5.81278
-4.14613
-2.46248
-0.800562
-10.9275
-10.8953
-10.8293
-10.7261
-10.5813
-10.3887
-10.1415
-9.83228
-9.45337
-8.99785
-8.4601
-7.83658
-7.12664
-6.33318
-5.46314
-4.52773
-3.54226
-2.52569
-1.4997
-0.487498
-6.62845
-6.60844
-6.56743
-6.50349
-6.41381
-6.29485
-6.14249
-5.9523
-5.71984
-5.44108
-5.11278
-4.733
-4.30155
-3.82033
-3.29366
-2.72834
-2.13362
-1.5208
-0.902813
-0.293441
-3.9717
-3.95944
-3.93434
-3.89525
-3.84051
-3.76803
-3.67539
-3.56
-3.41927
-3.25089
-3.05303
-2.82464
-2.56569
-2.27742
-1.96245
-1.62489
-1.2702
-0.90511
-0.537203
-0.17459
-2.35088
-2.34347
-2.32832
-2.30476
-2.2718
-2.22824
-2.17267
-2.10358
-2.0195
-1.91911
-1.80137
-1.66574
-1.51225
-1.34166
-1.15558
-0.956408
-0.747383
-0.532419
-0.315945
-0.102673
-1.37464
-1.37023
-1.36121
-1.3472
-1.32763
-1.30179
-1.26889
-1.22807
-1.17849
-1.11939
-1.05022
-0.970677
-0.880811
-0.781097
-0.672474
-0.556361
-0.434629
-0.309544
-0.183658
-0.0596788
-0.794098
-0.791507
-0.78621
-0.777987
-0.766517
-0.7514
-0.732179
-0.70837
-0.6795
-0.645155
-0.605023
-0.558949
-0.506979
-0.449396
-0.386751
-0.319862
-0.249804
-0.177871
-0.105518
-0.0342853
-0.453213
-0.45171
-0.448641
-0.44388
-0.437246
-0.428515
-0.417431
-0.403722
-0.387127
-0.367416
-0.344421
-0.318061
-0.288372
-0.25552
-0.219822
-0.181746
-0.141901
-0.101019
-0.0599192
-0.0194679
-0.25556
-0.254701
-0.252945
-0.250224
-0.246438
-0.24146
-0.235149
-0.227356
-0.217936
-0.206765
-0.193751
-0.178855
-0.162099
-0.143581
-0.123481
-0.102063
-0.079668
-0.0567049
-0.0336301
-0.0109259
-0.142385
-0.141899
-0.140908
-0.139374
-0.13724
-0.134438
-0.130891
-0.126516
-0.121236
-0.114982
-0.107708
-0.0993917
-0.0900489
-0.0797355
-0.0685526
-0.0566468
-0.0442073
-0.0314598
-0.0186558
-0.00606068
-0.0783809
-0.0781102
-0.0775581
-0.0767035
-0.0755165
-0.0739597
-0.0719907
-0.0695657
-0.0666425
-0.0631851
-0.0591683
-0.0545821
-0.0494355
-0.0437602
-0.0376123
-0.0310723
-0.0242439
-0.0172503
-0.0102284
-0.00332274
-0.0426242
-0.0424753
-0.0421716
-0.0417019
-0.0410501
-0.040196
-0.0391171
-0.0377898
-0.0361919
-0.0343042
-0.0321137
-0.0296155
-0.026815
-0.0237299
-0.0203907
-0.0168414
-0.0131379
-0.00934661
-0.00554147
-0.00180009
-0.0228786
-0.0227978
-0.0226331
-0.0223786
-0.0220255
-0.0215633
-0.0209801
-0.0202635
-0.0194016
-0.0183847
-0.0172059
-0.0158629
-0.014359
-0.0127036
-0.0109134
-0.00901184
-0.00702886
-0.00499984
-0.00296407
-0.000962814
-0.0120784
-0.0120353
-0.0119475
-0.0118119
-0.011624
-0.0113782
-0.0110683
-0.0106879
-0.0102309
-0.00969223
-0.00906846
-0.00835848
-0.00756411
-0.0066905
-0.00574641
-0.00474424
-0.00369972
-0.00263141
-0.00155986
-0.00050667
-0.00618359
-0.00616134
-0.00611602
-0.00604605
-0.00594914
-0.00582249
-0.00566295
-0.00546728
-0.00523243
-0.00495584
-0.00463585
-0.00427194
-0.00386509
-0.00341798
-0.00293512
-0.00242283
-0.00188914
-0.0013435
-0.000796354
-0.000258663
-0.0028879
-0.00287744
-0.00285614
-0.00282326
-0.00277774
-0.00271829
-0.00264346
-0.00255174
-0.00244173
-0.00231226
-0.00216258
-0.00199247
-0.0018024
-0.00159364
-0.0013683
-0.00112933
-0.000880474
-0.000626114
-0.000371108
-0.000120536
-0.000839789
-0.000836736
-0.000830519
-0.000820925
-0.000807647
-0.000790311
-0.000768494
-0.000741766
-0.000709722
-0.000672026
-0.000628459
-0.000578965
-0.000523685
-0.000462988
-0.000397488
-0.000328045
-0.000255741
-0.000181852
-0.000107783
-3.50074e-05
)
;

boundaryField
{
    topWall
    {
        type            calculated;
        value           uniform 0;
    }
    bottomWall
    {
        type            calculated;
        value           nonuniform List<scalar> 
20
(
-133975
-133994
-134036
-134105
-134213
-134375
-134615
-134971
-135496
-136276
-137440
-139196
-141888
-146107
-152950
-164647
-186347
-231997
-346157
-692189
)
;
    }
    sideWallL
    {
        type            symmetry;
    }
    sideWallR
    {
        type            calculated;
        value           nonuniform List<scalar> 
45
(
-435360
-119308
-43052.3
-19872.2
-10971.6
-6763.89
-4445.11
-3031.66
-2113.04
-1491.11
-1058.9
-753.606
-535.89
-379.913
-268.06
-187.994
-130.908
-90.4324
-61.9333
-42.0263
-28.243
-18.79
-12.3717
-8.05939
-5.19339
-3.30974
-2.08577
-1.29961
-0.800562
-0.487498
-0.293441
-0.17459
-0.102673
-0.0596788
-0.0342853
-0.0194679
-0.0109259
-0.00606068
-0.00332274
-0.00180009
-0.000962814
-0.00050667
-0.000258663
-0.000120536
-3.50074e-05
)
;
    }
    frontAndBack
    {
        type            empty;
    }
}


// ************************************************************************* //
