/*--------------------------------*- C++ -*----------------------------------*\
  =========                 |
  \\      /  F ield         | OpenFOAM: The Open Source CFD Toolbox
   \\    /   O peration     | Website:  https://openfoam.org
    \\  /    A nd           | Version:  7
     \\/     M anipulation  |
\*---------------------------------------------------------------------------*/
FoamFile
{
    version     2.0;
    format      ascii;
    class       volScalarField;
    location    "13";
    object      rhoc;
}
// * * * * * * * * * * * * * * * * * * * * * * * * * * * * * * * * * * * * * //

dimensions      [1 -3 0 0 0 0 0];

internalField   nonuniform List<scalar> 
900
(
1.17984e-17
1.17947e-17
1.17866e-17
1.1773e-17
1.17515e-17
1.1719e-17
1.16702e-17
1.15975e-17
1.14893e-17
1.13284e-17
1.10893e-17
1.07334e-17
1.02036e-17
9.41581e-18
8.25151e-18
6.56474e-18
4.26563e-18
1.68719e-18
1.50121e-19
4.15461e-23
8.91072e-20
8.9017e-20
8.88226e-20
8.8494e-20
8.79811e-20
8.72066e-20
8.60561e-20
8.43642e-20
8.18974e-20
7.83359e-20
7.32623e-20
6.61791e-20
5.66024e-20
4.43214e-20
2.99371e-20
1.56028e-20
5.01974e-21
6.1785e-22
9.87131e-24
2.13912e-27
1.00405e-21
1.00232e-21
9.98592e-22
9.92314e-22
9.82567e-22
9.67964e-22
9.46513e-22
9.15462e-22
8.71192e-22
8.09273e-22
7.24979e-22
6.14732e-22
4.79078e-22
3.27314e-22
1.81365e-22
7.14613e-23
1.59735e-23
1.37849e-24
2.54583e-26
7.17296e-29
1.79383e-23
1.78959e-23
1.7805e-23
1.76526e-23
1.74172e-23
1.70676e-23
1.65598e-23
1.58364e-23
1.4827e-23
1.34564e-23
1.16649e-23
9.44802e-24
6.91738e-24
4.35462e-24
2.1848e-24
7.79381e-25
1.67462e-25
1.74741e-26
7.46675e-28
1.86065e-29
5.29543e-25
5.28046e-25
5.24842e-25
5.19489e-25
5.11273e-25
4.99161e-25
4.81756e-25
4.573e-25
4.23795e-25
3.79368e-25
3.23041e-25
2.55977e-25
1.82926e-25
1.12791e-25
5.64538e-26
2.11678e-26
5.41175e-27
8.74078e-28
9.35152e-29
9.78151e-30
2.64005e-26
2.632e-26
2.61478e-26
2.58612e-26
2.54235e-26
2.47826e-26
2.38695e-26
2.26001e-26
2.08838e-26
1.86436e-26
1.58546e-26
1.25979e-26
9.1138e-27
5.80355e-27
3.12055e-27
1.35357e-27
4.56502e-28
1.2021e-28
2.74306e-29
6.9004e-30
2.23578e-27
2.22907e-27
2.21475e-27
2.19097e-27
2.1548e-27
2.10212e-27
2.02751e-27
1.92452e-27
1.78634e-27
1.60735e-27
1.38588e-27
1.12787e-27
8.50163e-28
5.80471e-28
3.50646e-28
1.83837e-28
8.33699e-29
3.37251e-29
1.31975e-29
5.62127e-30
3.19184e-28
3.18325e-28
3.16495e-28
3.13463e-28
3.08865e-28
3.02191e-28
2.92777e-28
2.79828e-28
2.62502e-28
2.40075e-28
2.12235e-28
1.79467e-28
1.43411e-28
1.06935e-28
7.36076e-29
4.65624e-29
2.72877e-29
1.52202e-29
8.46333e-30
4.95373e-30
7.47271e-29
7.45629e-29
7.42138e-29
7.36364e-29
7.27629e-29
7.14978e-29
6.9717e-29
6.72708e-29
6.39958e-29
5.97414e-29
5.44136e-29
4.8037e-29
4.0816e-29
3.31658e-29
2.56669e-29
1.89298e-29
1.34108e-29
9.28045e-30
6.42635e-30
4.57147e-30
2.69736e-29
2.6929e-29
2.68344e-29
2.66781e-29
2.64421e-29
2.61009e-29
2.56213e-29
2.49628e-29
2.40796e-29
2.29268e-29
2.14688e-29
1.96939e-29
1.76285e-29
1.53489e-29
1.29797e-29
1.06751e-29
8.58322e-30
6.81057e-30
5.40101e-30
4.33997e-30
1.36634e-29
1.36474e-29
1.36132e-29
1.35569e-29
1.34721e-29
1.33497e-29
1.3178e-29
1.29423e-29
1.26261e-29
1.22117e-29
1.16836e-29
1.1032e-29
1.02578e-29
9.37672e-30
8.4212e-30
7.43809e-30
6.48105e-30
5.60007e-30
4.83185e-30
4.19483e-30
8.78835e-30
8.78114e-30
8.76586e-30
8.74073e-30
8.70296e-30
8.64864e-30
8.57259e-30
8.46844e-30
8.32874e-30
8.14544e-30
7.91085e-30
7.61901e-30
7.26749e-30
6.85922e-30
6.40387e-30
5.91779e-30
5.4225e-30
4.94136e-30
4.49579e-30
4.1019e-30
6.61657e-30
6.61281e-30
6.60486e-30
6.59181e-30
6.57226e-30
6.54424e-30
6.50515e-30
6.45179e-30
6.38037e-30
6.28676e-30
6.16684e-30
6.01708e-30
5.83536e-30
5.62178e-30
5.37946e-30
5.1148e-30
4.83725e-30
4.5582e-30
4.28949e-30
4.04167e-30
5.51037e-30
5.5082e-30
5.50362e-30
5.49612e-30
5.48492e-30
5.46894e-30
5.44674e-30
5.41655e-30
5.3763e-30
5.3237e-30
5.25641e-30
5.17236e-30
5.07007e-30
4.94915e-30
4.81066e-30
4.65736e-30
4.49376e-30
4.3257e-30
4.15975e-30
4.00237e-30
4.89442e-30
4.89308e-30
4.89026e-30
4.88566e-30
4.87881e-30
4.86908e-30
4.85563e-30
4.83743e-30
4.81327e-30
4.78184e-30
4.74176e-30
4.69179e-30
4.63101e-30
4.55903e-30
4.47623e-30
4.38393e-30
4.28444e-30
4.18089e-30
4.07702e-30
3.97669e-30
4.53097e-30
4.53011e-30
4.5283e-30
4.52536e-30
4.521e-30
4.51483e-30
4.50634e-30
4.49493e-30
4.47986e-30
4.46035e-30
4.43558e-30
4.40481e-30
4.36747e-30
4.32329e-30
4.27242e-30
4.21555e-30
4.15393e-30
4.08932e-30
4.02387e-30
3.95991e-30
4.3085e-30
4.30793e-30
4.30674e-30
4.30482e-30
4.30198e-30
4.29797e-30
4.2925e-30
4.28518e-30
4.27557e-30
4.26319e-30
4.24755e-30
4.22822e-30
4.20484e-30
4.17724e-30
4.14552e-30
4.11004e-30
4.07151e-30
4.03096e-30
3.98966e-30
3.94899e-30
4.16929e-30
4.16891e-30
4.16812e-30
4.16685e-30
4.16497e-30
4.16235e-30
4.15878e-30
4.15403e-30
4.14783e-30
4.13989e-30
4.12992e-30
4.11764e-30
4.10287e-30
4.08549e-30
4.06557e-30
4.04331e-30
4.01914e-30
3.99367e-30
3.96765e-30
3.94191e-30
4.08113e-30
4.08088e-30
4.08035e-30
4.07951e-30
4.07827e-30
4.07654e-30
4.07421e-30
4.07112e-30
4.06711e-30
4.062e-30
4.05561e-30
4.0478e-30
4.03844e-30
4.02748e-30
4.01495e-30
4.00098e-30
3.98584e-30
3.96987e-30
3.95355e-30
3.93736e-30
4.02503e-30
4.02487e-30
4.02452e-30
4.02396e-30
4.02314e-30
4.02201e-30
4.02049e-30
4.01848e-30
4.01589e-30
4.01261e-30
4.00853e-30
4.00357e-30
3.99765e-30
3.99075e-30
3.98289e-30
3.97415e-30
3.9647e-30
3.95474e-30
3.94455e-30
3.93444e-30
3.98934e-30
3.98923e-30
3.989e-30
3.98864e-30
3.9881e-30
3.98736e-30
3.98638e-30
3.98508e-30
3.98342e-30
3.98132e-30
3.97873e-30
3.97559e-30
3.97187e-30
3.96755e-30
3.96264e-30
3.95721e-30
3.95134e-30
3.94517e-30
3.93886e-30
3.93259e-30
3.96672e-30
3.96665e-30
3.9665e-30
3.96626e-30
3.96591e-30
3.96543e-30
3.9648e-30
3.96397e-30
3.96291e-30
3.96158e-30
3.95995e-30
3.95798e-30
3.95565e-30
3.95296e-30
3.94992e-30
3.94657e-30
3.94295e-30
3.93916e-30
3.93528e-30
3.93143e-30
3.95246e-30
3.95241e-30
3.95232e-30
3.95216e-30
3.95194e-30
3.95163e-30
3.95123e-30
3.9507e-30
3.95003e-30
3.9492e-30
3.94818e-30
3.94696e-30
3.94552e-30
3.94386e-30
3.94199e-30
3.93993e-30
3.93773e-30
3.93541e-30
3.93305e-30
3.93071e-30
3.94354e-30
3.94351e-30
3.94345e-30
3.94335e-30
3.94321e-30
3.94302e-30
3.94276e-30
3.94243e-30
3.94202e-30
3.9415e-30
3.94087e-30
3.94012e-30
3.93923e-30
3.93822e-30
3.93708e-30
3.93583e-30
3.9345e-30
3.9331e-30
3.93167e-30
3.93026e-30
3.93802e-30
3.938e-30
3.93796e-30
3.9379e-30
3.93781e-30
3.93769e-30
3.93753e-30
3.93733e-30
3.93707e-30
3.93675e-30
3.93636e-30
3.93591e-30
3.93537e-30
3.93476e-30
3.93407e-30
3.93332e-30
3.93252e-30
3.93168e-30
3.93083e-30
3.92998e-30
3.93462e-30
3.93461e-30
3.93459e-30
3.93455e-30
3.9345e-30
3.93442e-30
3.93432e-30
3.9342e-30
3.93404e-30
3.93385e-30
3.93362e-30
3.93334e-30
3.93302e-30
3.93265e-30
3.93224e-30
3.93179e-30
3.93132e-30
3.93082e-30
3.93032e-30
3.92982e-30
3.93256e-30
3.93256e-30
3.93254e-30
3.93252e-30
3.93249e-30
3.93244e-30
3.93238e-30
3.93231e-30
3.93221e-30
3.9321e-30
3.93196e-30
3.93179e-30
3.9316e-30
3.93138e-30
3.93114e-30
3.93088e-30
3.9306e-30
3.93031e-30
3.93001e-30
3.92972e-30
3.93133e-30
3.93132e-30
3.93131e-30
3.9313e-30
3.93128e-30
3.93125e-30
3.93122e-30
3.93117e-30
3.93111e-30
3.93105e-30
3.93096e-30
3.93087e-30
3.93075e-30
3.93063e-30
3.93048e-30
3.93033e-30
3.93017e-30
3.93e-30
3.92983e-30
3.92966e-30
3.93059e-30
3.93059e-30
3.93058e-30
3.93057e-30
3.93056e-30
3.93054e-30
3.93052e-30
3.9305e-30
3.93046e-30
3.93042e-30
3.93038e-30
3.93032e-30
3.93025e-30
3.93018e-30
3.9301e-30
3.93001e-30
3.92992e-30
3.92982e-30
3.92972e-30
3.92962e-30
3.93016e-30
3.93015e-30
3.93015e-30
3.93015e-30
3.93014e-30
3.93013e-30
3.93012e-30
3.9301e-30
3.93008e-30
3.93006e-30
3.93003e-30
3.93e-30
3.92996e-30
3.92992e-30
3.92987e-30
3.92982e-30
3.92977e-30
3.92971e-30
3.92966e-30
3.9296e-30
3.9299e-30
3.9299e-30
3.9299e-30
3.9299e-30
3.92989e-30
3.92989e-30
3.92988e-30
3.92987e-30
3.92986e-30
3.92985e-30
3.92983e-30
3.92981e-30
3.92979e-30
3.92977e-30
3.92974e-30
3.92971e-30
3.92968e-30
3.92965e-30
3.92962e-30
3.92959e-30
3.92976e-30
3.92976e-30
3.92976e-30
3.92976e-30
3.92975e-30
3.92975e-30
3.92975e-30
3.92974e-30
3.92974e-30
3.92973e-30
3.92972e-30
3.92971e-30
3.9297e-30
3.92968e-30
3.92967e-30
3.92965e-30
3.92964e-30
3.92962e-30
3.9296e-30
3.92958e-30
3.92968e-30
3.92968e-30
3.92968e-30
3.92968e-30
3.92967e-30
3.92967e-30
3.92967e-30
3.92967e-30
3.92966e-30
3.92966e-30
3.92965e-30
3.92965e-30
3.92964e-30
3.92963e-30
3.92963e-30
3.92962e-30
3.92961e-30
3.9296e-30
3.92959e-30
3.92958e-30
3.92963e-30
3.92963e-30
3.92963e-30
3.92963e-30
3.92963e-30
3.92963e-30
3.92963e-30
3.92963e-30
3.92962e-30
3.92962e-30
3.92962e-30
3.92962e-30
3.92961e-30
3.92961e-30
3.9296e-30
3.9296e-30
3.92959e-30
3.92959e-30
3.92958e-30
3.92958e-30
3.92961e-30
3.92961e-30
3.92961e-30
3.9296e-30
3.9296e-30
3.9296e-30
3.9296e-30
3.9296e-30
3.9296e-30
3.9296e-30
3.9296e-30
3.9296e-30
3.92959e-30
3.92959e-30
3.92959e-30
3.92959e-30
3.92958e-30
3.92958e-30
3.92958e-30
3.92958e-30
3.92959e-30
3.92959e-30
3.92959e-30
3.92959e-30
3.92959e-30
3.92959e-30
3.92959e-30
3.92959e-30
3.92959e-30
3.92959e-30
3.92959e-30
3.92959e-30
3.92959e-30
3.92958e-30
3.92958e-30
3.92958e-30
3.92958e-30
3.92958e-30
3.92958e-30
3.92958e-30
3.92958e-30
3.92958e-30
3.92958e-30
3.92958e-30
3.92958e-30
3.92958e-30
3.92958e-30
3.92958e-30
3.92958e-30
3.92958e-30
3.92958e-30
3.92958e-30
3.92958e-30
3.92958e-30
3.92958e-30
3.92958e-30
3.92958e-30
3.92958e-30
3.92958e-30
3.92958e-30
3.92958e-30
3.92958e-30
3.92958e-30
3.92958e-30
3.92958e-30
3.92958e-30
3.92958e-30
3.92958e-30
3.92958e-30
3.92958e-30
3.92958e-30
3.92958e-30
3.92958e-30
3.92958e-30
3.92958e-30
3.92958e-30
3.92958e-30
3.92958e-30
3.92958e-30
3.92958e-30
3.92958e-30
3.92958e-30
3.92958e-30
3.92958e-30
3.92958e-30
3.92958e-30
3.92958e-30
3.92958e-30
3.92958e-30
3.92958e-30
3.92958e-30
3.92958e-30
3.92958e-30
3.92958e-30
3.92958e-30
3.92958e-30
3.92958e-30
3.92958e-30
3.92958e-30
3.92957e-30
3.92958e-30
3.92958e-30
3.92958e-30
3.92958e-30
3.92958e-30
3.92958e-30
3.92958e-30
3.92958e-30
3.92958e-30
3.92958e-30
3.92958e-30
3.92958e-30
3.92958e-30
3.92958e-30
3.92958e-30
3.92958e-30
3.92958e-30
3.92958e-30
3.92958e-30
3.92957e-30
3.92958e-30
3.92958e-30
3.92958e-30
3.92958e-30
3.92958e-30
3.92958e-30
3.92958e-30
3.92958e-30
3.92958e-30
3.92958e-30
3.92958e-30
3.92958e-30
3.92958e-30
3.92958e-30
3.92958e-30
3.92958e-30
3.92958e-30
3.92958e-30
3.92957e-30
3.92957e-30
3.92958e-30
3.92958e-30
3.92958e-30
3.92958e-30
3.92958e-30
3.92958e-30
3.92958e-30
3.92958e-30
3.92958e-30
3.92958e-30
3.92958e-30
3.92958e-30
3.92958e-30
3.92958e-30
3.92958e-30
3.92957e-30
3.92957e-30
3.92957e-30
3.92957e-30
3.92957e-30
3.92958e-30
3.92958e-30
3.92958e-30
3.92958e-30
3.92958e-30
3.92958e-30
3.92958e-30
3.92958e-30
3.92957e-30
3.92957e-30
3.92957e-30
3.92957e-30
3.92957e-30
3.92957e-30
3.92957e-30
3.92957e-30
3.92957e-30
3.92957e-30
3.92957e-30
3.92957e-30
3.92957e-30
3.92957e-30
3.92957e-30
3.92957e-30
3.92957e-30
3.92957e-30
3.92957e-30
3.92957e-30
3.92957e-30
3.92957e-30
3.92957e-30
3.92957e-30
3.92957e-30
3.92957e-30
3.92957e-30
3.92957e-30
3.92957e-30
3.92957e-30
3.92957e-30
3.92957e-30
3.92957e-30
3.92957e-30
3.92957e-30
3.92957e-30
3.92957e-30
3.92957e-30
3.92957e-30
3.92957e-30
3.92957e-30
3.92957e-30
3.92957e-30
3.92957e-30
3.92957e-30
3.92957e-30
3.92957e-30
3.92957e-30
3.92957e-30
3.92957e-30
3.92957e-30
3.92957e-30
)
;

boundaryField
{
    topWall
    {
        type            zeroGradient;
    }
    bottomWall
    {
        type            zeroGradient;
    }
    sideWallL
    {
        type            symmetry;
    }
    sideWallR
    {
        type            zeroGradient;
    }
    frontAndBack
    {
        type            empty;
    }
}


// ************************************************************************* //
