/*--------------------------------*- C++ -*----------------------------------*\
  =========                 |
  \\      /  F ield         | OpenFOAM: The Open Source CFD Toolbox
   \\    /   O peration     | Website:  https://openfoam.org
    \\  /    A nd           | Version:  7
     \\/     M anipulation  |
\*---------------------------------------------------------------------------*/
FoamFile
{
    version     2.0;
    format      ascii;
    class       volScalarField;
    location    "13";
    object      rhog;
}
// * * * * * * * * * * * * * * * * * * * * * * * * * * * * * * * * * * * * * //

dimensions      [1 -3 0 0 0 0 0];

internalField   nonuniform List<scalar> 
900
(
1.23625e-08
1.23601e-08
1.2355e-08
1.23463e-08
1.23328e-08
1.23122e-08
1.22813e-08
1.22353e-08
1.21667e-08
1.20645e-08
1.19118e-08
1.16824e-08
1.13357e-08
1.08071e-08
9.99284e-09
8.726e-09
6.75953e-09
3.90287e-09
9.29914e-10
7.01897e-12
6.98009e-10
6.97578e-10
6.9665e-10
6.95082e-10
6.92632e-10
6.8893e-10
6.83417e-10
6.75272e-10
6.63303e-10
6.45799e-10
6.2035e-10
5.8367e-10
5.31543e-10
4.59252e-10
3.63337e-10
2.46292e-10
1.25196e-10
3.58232e-11
3.00125e-12
1.79431e-14
4.92277e-11
4.91756e-11
4.90634e-11
4.88745e-11
4.85806e-11
4.81391e-11
4.74871e-11
4.65349e-11
4.51578e-11
4.31882e-11
4.04132e-11
3.65881e-11
3.14894e-11
2.50436e-11
1.75653e-11
1.00393e-11
4.07947e-12
9.32312e-13
8.29178e-14
2.19458e-15
4.50788e-12
4.50131e-12
4.48719e-12
4.46347e-12
4.42679e-12
4.37203e-12
4.29191e-12
4.17632e-12
4.0119e-12
3.78191e-12
3.46748e-12
3.05133e-12
2.52621e-12
1.90911e-12
1.25785e-12
6.74082e-13
2.65378e-13
6.70382e-14
9.63779e-15
9.37365e-16
5.50335e-13
5.49366e-13
5.47289e-13
5.43815e-13
5.38465e-13
5.30537e-13
5.1904e-13
5.02648e-13
4.79682e-13
4.48182e-13
4.0618e-13
3.52324e-13
2.86973e-13
2.13645e-13
1.40036e-13
7.68911e-14
3.33135e-14
1.08002e-14
2.6565e-15
6.22358e-16
9.08244e-14
9.06497e-14
9.02762e-14
8.96532e-14
8.86988e-14
8.72933e-14
8.52719e-14
8.24195e-14
7.84734e-14
7.31433e-14
6.61647e-14
5.74008e-14
4.70003e-14
3.55688e-14
2.42369e-14
1.44387e-14
7.3286e-15
3.15809e-15
1.22305e-15
4.97718e-16
2.0325e-14
2.02859e-14
2.02024e-14
2.00636e-14
1.98519e-14
1.95419e-14
1.90992e-14
1.84796e-14
1.76307e-14
1.64963e-14
1.50279e-14
1.32035e-14
1.10556e-14
8.69719e-15
6.32939e-15
4.20393e-15
2.53634e-15
1.41255e-15
7.64024e-16
4.36271e-16
6.13361e-15
6.12277e-15
6.09966e-15
6.06135e-15
6.00316e-15
5.91835e-15
5.79793e-15
5.63048e-15
5.40261e-15
5.10016e-15
4.71086e-15
4.22872e-15
3.65993e-15
3.02849e-15
2.3779e-15
1.76474e-15
1.24289e-15
8.44883e-16
5.72325e-16
4.02144e-16
2.4586e-15
2.45493e-15
2.44714e-15
2.43426e-15
2.41476e-15
2.38646e-15
2.34646e-15
2.2911e-15
2.21612e-15
2.11698e-15
1.98962e-15
1.83164e-15
1.64392e-15
1.4321e-15
1.20733e-15
9.85115e-16
7.8198e-16
6.10933e-16
4.78001e-16
3.81823e-16
1.27028e-15
1.26881e-15
1.26569e-15
1.26054e-15
1.25277e-15
1.24153e-15
1.22571e-15
1.2039e-15
1.17445e-15
1.1356e-15
1.0857e-15
1.0236e-15
9.4915e-16
8.63754e-16
7.70662e-16
6.74823e-16
5.82105e-16
4.98026e-16
4.26506e-16
3.69197e-16
8.07548e-16
8.06867e-16
8.05422e-16
8.03044e-16
7.99465e-16
7.94307e-16
7.87071e-16
7.77131e-16
7.63753e-16
7.46135e-16
7.23498e-16
6.95232e-16
6.61089e-16
6.21384e-16
5.77159e-16
5.30191e-16
4.82808e-16
4.37499e-16
3.96446e-16
3.61144e-16
5.98611e-16
5.98257e-16
5.97506e-16
5.96274e-16
5.94425e-16
5.91769e-16
5.88057e-16
5.82977e-16
5.76161e-16
5.67202e-16
5.55699e-16
5.41307e-16
5.23829e-16
5.03304e-16
4.80085e-16
4.54877e-16
4.28687e-16
4.02705e-16
3.78119e-16
3.55924e-16
4.93011e-16
4.9281e-16
4.92384e-16
4.91687e-16
4.90644e-16
4.89152e-16
4.87075e-16
4.84243e-16
4.80458e-16
4.75497e-16
4.69138e-16
4.6118e-16
4.5149e-16
4.40042e-16
4.26963e-16
4.12553e-16
3.97286e-16
3.81761e-16
3.66631e-16
3.52511e-16
4.35039e-16
4.34917e-16
4.34659e-16
4.34239e-16
4.33612e-16
4.32719e-16
4.31481e-16
4.29801e-16
4.27564e-16
4.24645e-16
4.20912e-16
4.16249e-16
4.10568e-16
4.03839e-16
3.96108e-16
3.87515e-16
3.78298e-16
3.68773e-16
3.59306e-16
3.50269e-16
4.01291e-16
4.01214e-16
4.01051e-16
4.00786e-16
4.00393e-16
3.99834e-16
3.99064e-16
3.98023e-16
3.96644e-16
3.94853e-16
3.92571e-16
3.89729e-16
3.86272e-16
3.82177e-16
3.77461e-16
3.72195e-16
3.66506e-16
3.60567e-16
3.5459e-16
3.48796e-16
3.80841e-16
3.80791e-16
3.80685e-16
3.80513e-16
3.80259e-16
3.799e-16
3.79406e-16
3.78744e-16
3.77871e-16
3.76741e-16
3.7531e-16
3.73534e-16
3.7138e-16
3.68833e-16
3.659e-16
3.6262e-16
3.59063e-16
3.55328e-16
3.51539e-16
3.4783e-16
3.6812e-16
3.68086e-16
3.68016e-16
3.67903e-16
3.67736e-16
3.67501e-16
3.6718e-16
3.66751e-16
3.66189e-16
3.65467e-16
3.64555e-16
3.63429e-16
3.62069e-16
3.60465e-16
3.58622e-16
3.56561e-16
3.54323e-16
3.51967e-16
3.49565e-16
3.47198e-16
3.60079e-16
3.60056e-16
3.6001e-16
3.59934e-16
3.59824e-16
3.59669e-16
3.59459e-16
3.59179e-16
3.58815e-16
3.58349e-16
3.57764e-16
3.57046e-16
3.56182e-16
3.55167e-16
3.54003e-16
3.52704e-16
3.51294e-16
3.49808e-16
3.4829e-16
3.46788e-16
3.54954e-16
3.54939e-16
3.54908e-16
3.54858e-16
3.54784e-16
3.54682e-16
3.54544e-16
3.54362e-16
3.54125e-16
3.53825e-16
3.53449e-16
3.5299e-16
3.52441e-16
3.51798e-16
3.51064e-16
3.50246e-16
3.4936e-16
3.48426e-16
3.4747e-16
3.46523e-16
3.51678e-16
3.51668e-16
3.51648e-16
3.51614e-16
3.51566e-16
3.51499e-16
3.51409e-16
3.5129e-16
3.51137e-16
3.50943e-16
3.50703e-16
3.50411e-16
3.50063e-16
3.49657e-16
3.49195e-16
3.48682e-16
3.48127e-16
3.47543e-16
3.46946e-16
3.46353e-16
3.49588e-16
3.49581e-16
3.49567e-16
3.49546e-16
3.49514e-16
3.4947e-16
3.49411e-16
3.49335e-16
3.49236e-16
3.49112e-16
3.4896e-16
3.48774e-16
3.48555e-16
3.483e-16
3.48011e-16
3.47692e-16
3.47347e-16
3.46984e-16
3.46613e-16
3.46245e-16
3.48259e-16
3.48255e-16
3.48246e-16
3.48231e-16
3.48211e-16
3.48183e-16
3.48145e-16
3.48096e-16
3.48033e-16
3.47954e-16
3.47858e-16
3.47741e-16
3.47604e-16
3.47445e-16
3.47266e-16
3.47068e-16
3.46855e-16
3.46632e-16
3.46404e-16
3.46177e-16
3.4742e-16
3.47417e-16
3.47411e-16
3.47402e-16
3.47389e-16
3.47371e-16
3.47347e-16
3.47316e-16
3.47276e-16
3.47227e-16
3.47166e-16
3.47094e-16
3.47009e-16
3.46911e-16
3.468e-16
3.46679e-16
3.46549e-16
3.46412e-16
3.46273e-16
3.46135e-16
3.46894e-16
3.46893e-16
3.46889e-16
3.46883e-16
3.46875e-16
3.46863e-16
3.46848e-16
3.46828e-16
3.46804e-16
3.46773e-16
3.46736e-16
3.46691e-16
3.46639e-16
3.46579e-16
3.46511e-16
3.46438e-16
3.46359e-16
3.46276e-16
3.46192e-16
3.46108e-16
3.46568e-16
3.46567e-16
3.46565e-16
3.46561e-16
3.46556e-16
3.46549e-16
3.46539e-16
3.46527e-16
3.46512e-16
3.46493e-16
3.4647e-16
3.46443e-16
3.46411e-16
3.46375e-16
3.46334e-16
3.46289e-16
3.46242e-16
3.46192e-16
3.46142e-16
3.46092e-16
3.46367e-16
3.46367e-16
3.46365e-16
3.46363e-16
3.4636e-16
3.46355e-16
3.4635e-16
3.46342e-16
3.46333e-16
3.46321e-16
3.46307e-16
3.46291e-16
3.46272e-16
3.4625e-16
3.46226e-16
3.46199e-16
3.46171e-16
3.46142e-16
3.46112e-16
3.46082e-16
3.46245e-16
3.46245e-16
3.46244e-16
3.46243e-16
3.46241e-16
3.46238e-16
3.46235e-16
3.4623e-16
3.46224e-16
3.46218e-16
3.46209e-16
3.46199e-16
3.46188e-16
3.46175e-16
3.46161e-16
3.46145e-16
3.46129e-16
3.46111e-16
3.46094e-16
3.46076e-16
3.46172e-16
3.46172e-16
3.46171e-16
3.4617e-16
3.46169e-16
3.46168e-16
3.46165e-16
3.46163e-16
3.46159e-16
3.46155e-16
3.4615e-16
3.46145e-16
3.46138e-16
3.4613e-16
3.46122e-16
3.46113e-16
3.46103e-16
3.46093e-16
3.46083e-16
3.46073e-16
3.46128e-16
3.46128e-16
3.46128e-16
3.46127e-16
3.46127e-16
3.46126e-16
3.46124e-16
3.46123e-16
3.46121e-16
3.46118e-16
3.46116e-16
3.46112e-16
3.46108e-16
3.46104e-16
3.46099e-16
3.46094e-16
3.46088e-16
3.46082e-16
3.46076e-16
3.46071e-16
3.46103e-16
3.46102e-16
3.46102e-16
3.46102e-16
3.46102e-16
3.46101e-16
3.461e-16
3.46099e-16
3.46098e-16
3.46097e-16
3.46095e-16
3.46093e-16
3.46091e-16
3.46088e-16
3.46086e-16
3.46083e-16
3.46079e-16
3.46076e-16
3.46073e-16
3.46069e-16
3.46088e-16
3.46088e-16
3.46087e-16
3.46087e-16
3.46087e-16
3.46087e-16
3.46086e-16
3.46086e-16
3.46085e-16
3.46084e-16
3.46083e-16
3.46082e-16
3.46081e-16
3.46079e-16
3.46078e-16
3.46076e-16
3.46074e-16
3.46073e-16
3.46071e-16
3.46069e-16
3.46079e-16
3.46079e-16
3.46079e-16
3.46079e-16
3.46079e-16
3.46078e-16
3.46078e-16
3.46078e-16
3.46077e-16
3.46077e-16
3.46077e-16
3.46076e-16
3.46075e-16
3.46074e-16
3.46073e-16
3.46073e-16
3.46072e-16
3.4607e-16
3.46069e-16
3.46068e-16
3.46074e-16
3.46074e-16
3.46074e-16
3.46074e-16
3.46074e-16
3.46074e-16
3.46074e-16
3.46073e-16
3.46073e-16
3.46073e-16
3.46073e-16
3.46072e-16
3.46072e-16
3.46071e-16
3.46071e-16
3.4607e-16
3.4607e-16
3.46069e-16
3.46069e-16
3.46068e-16
3.46071e-16
3.46071e-16
3.46071e-16
3.46071e-16
3.46071e-16
3.46071e-16
3.46071e-16
3.46071e-16
3.46071e-16
3.46071e-16
3.4607e-16
3.4607e-16
3.4607e-16
3.4607e-16
3.4607e-16
3.46069e-16
3.46069e-16
3.46069e-16
3.46068e-16
3.46068e-16
3.4607e-16
3.4607e-16
3.4607e-16
3.4607e-16
3.4607e-16
3.4607e-16
3.4607e-16
3.4607e-16
3.46069e-16
3.46069e-16
3.46069e-16
3.46069e-16
3.46069e-16
3.46069e-16
3.46069e-16
3.46069e-16
3.46068e-16
3.46068e-16
3.46068e-16
3.46068e-16
3.46069e-16
3.46069e-16
3.46069e-16
3.46069e-16
3.46069e-16
3.46069e-16
3.46069e-16
3.46069e-16
3.46069e-16
3.46069e-16
3.46069e-16
3.46069e-16
3.46069e-16
3.46068e-16
3.46068e-16
3.46068e-16
3.46068e-16
3.46068e-16
3.46068e-16
3.46068e-16
3.46068e-16
3.46068e-16
3.46068e-16
3.46068e-16
3.46068e-16
3.46068e-16
3.46068e-16
3.46068e-16
3.46068e-16
3.46068e-16
3.46068e-16
3.46068e-16
3.46068e-16
3.46068e-16
3.46068e-16
3.46068e-16
3.46068e-16
3.46068e-16
3.46068e-16
3.46068e-16
3.46068e-16
3.46068e-16
3.46068e-16
3.46068e-16
3.46068e-16
3.46068e-16
3.46068e-16
3.46068e-16
3.46068e-16
3.46068e-16
3.46068e-16
3.46068e-16
3.46068e-16
3.46068e-16
3.46068e-16
3.46068e-16
3.46068e-16
3.46068e-16
3.46068e-16
3.46068e-16
3.46068e-16
3.46068e-16
3.46068e-16
3.46068e-16
3.46068e-16
3.46068e-16
3.46068e-16
3.46068e-16
3.46068e-16
3.46068e-16
3.46068e-16
3.46068e-16
3.46068e-16
3.46068e-16
3.46068e-16
3.46068e-16
3.46068e-16
3.46068e-16
3.46068e-16
3.46068e-16
3.46068e-16
3.46068e-16
3.46068e-16
3.46068e-16
3.46068e-16
3.46068e-16
3.46068e-16
3.46068e-16
3.46068e-16
3.46068e-16
3.46068e-16
3.46068e-16
3.46068e-16
3.46068e-16
3.46068e-16
3.46068e-16
3.46068e-16
3.46068e-16
3.46068e-16
3.46068e-16
3.46068e-16
3.46068e-16
3.46068e-16
3.46068e-16
3.46068e-16
3.46068e-16
3.46068e-16
3.46068e-16
3.46068e-16
3.46068e-16
3.46068e-16
3.46068e-16
3.46068e-16
3.46068e-16
3.46068e-16
3.46068e-16
3.46068e-16
3.46068e-16
3.46068e-16
3.46068e-16
3.46068e-16
3.46068e-16
3.46068e-16
3.46068e-16
3.46068e-16
3.46068e-16
3.46068e-16
3.46068e-16
3.46068e-16
3.46068e-16
3.46068e-16
3.46068e-16
3.46068e-16
3.46068e-16
3.46068e-16
3.46068e-16
3.46068e-16
3.46068e-16
3.46068e-16
3.46068e-16
3.46068e-16
3.46068e-16
3.46068e-16
3.46068e-16
3.46068e-16
3.46068e-16
3.46068e-16
3.46068e-16
3.46068e-16
3.46068e-16
3.46068e-16
3.46068e-16
3.46068e-16
3.46068e-16
3.46068e-16
3.46068e-16
3.46068e-16
3.46068e-16
3.46068e-16
3.46068e-16
3.46068e-16
3.46068e-16
3.46068e-16
3.46068e-16
3.46068e-16
3.46068e-16
3.46068e-16
3.46068e-16
3.46068e-16
3.46068e-16
3.46068e-16
3.46068e-16
3.46068e-16
3.46068e-16
3.46068e-16
3.46068e-16
3.46068e-16
3.46068e-16
3.46068e-16
3.46068e-16
3.46068e-16
3.46068e-16
3.46068e-16
3.46068e-16
3.46068e-16
3.46068e-16
3.46068e-16
3.46068e-16
3.46068e-16
3.46068e-16
3.46068e-16
3.46068e-16
3.46068e-16
3.46068e-16
3.46068e-16
3.46068e-16
3.46068e-16
3.46068e-16
3.46068e-16
3.46068e-16
)
;

boundaryField
{
    topWall
    {
        type            calculated;
        value           uniform 0;
    }
    bottomWall
    {
        type            zeroGradient;
    }
    sideWallL
    {
        type            symmetry;
    }
    sideWallR
    {
        type            calculated;
        value           uniform 0;
    }
    frontAndBack
    {
        type            empty;
    }
}


// ************************************************************************* //
