/*--------------------------------*- C++ -*----------------------------------*\
  =========                 |
  \\      /  F ield         | OpenFOAM: The Open Source CFD Toolbox
   \\    /   O peration     | Website:  https://openfoam.org
    \\  /    A nd           | Version:  7
     \\/     M anipulation  |
\*---------------------------------------------------------------------------*/
FoamFile
{
    version     2.0;
    format      ascii;
    class       volScalarField;
    location    "13";
    object      rhois;
}
// * * * * * * * * * * * * * * * * * * * * * * * * * * * * * * * * * * * * * //

dimensions      [1 -3 0 0 0 0 0];

internalField   nonuniform List<scalar> 
900
(
1.79504e-06
1.7948e-06
1.79429e-06
1.79343e-06
1.79207e-06
1.78999e-06
1.78687e-06
1.78219e-06
1.7752e-06
1.7647e-06
1.74892e-06
1.72501e-06
1.68849e-06
1.63201e-06
1.54317e-06
1.40033e-06
1.16572e-06
7.85261e-07
2.79767e-07
8.4532e-09
2.2025e-07
2.20157e-07
2.19957e-07
2.19616e-07
2.19083e-07
2.18273e-07
2.1706e-07
2.15256e-07
2.12584e-07
2.08635e-07
2.02816e-07
1.94275e-07
1.81822e-07
1.63892e-07
1.38713e-07
1.05109e-07
6.48202e-08
2.6517e-08
4.53791e-09
1.25839e-10
3.20167e-08
3.19936e-08
3.19438e-08
3.18596e-08
3.17282e-08
3.15296e-08
3.12342e-08
3.07989e-08
3.01623e-08
2.92381e-08
2.79096e-08
2.60266e-08
2.34153e-08
1.99178e-08
1.54959e-08
1.04246e-08
5.50752e-09
1.94073e-09
3.56365e-10
2.97377e-11
5.67663e-09
5.67103e-09
5.65898e-09
5.63868e-09
5.60711e-09
5.55967e-09
5.48967e-09
5.38759e-09
5.2403e-09
5.03037e-09
4.73592e-09
4.33216e-09
3.79653e-09
3.12038e-09
2.32897e-09
1.50397e-09
7.83554e-10
3.01171e-10
7.97984e-11
1.66282e-11
1.25325e-09
1.25178e-09
1.24861e-09
1.24329e-09
1.23506e-09
1.22276e-09
1.20476e-09
1.17878e-09
1.14177e-09
1.08991e-09
1.01871e-09
9.23686e-10
8.01775e-10
6.53929e-10
4.88438e-10
3.23089e-10
1.82054e-10
8.47429e-11
3.3163e-11
1.25399e-11
3.48791e-10
3.48351e-10
3.47408e-10
3.45829e-10
3.43395e-10
3.39781e-10
3.34531e-10
3.27023e-10
3.16454e-10
3.01847e-10
2.82126e-10
2.56311e-10
2.23896e-10
1.85424e-10
1.43097e-10
1.00986e-10
6.41859e-11
3.67591e-11
1.96735e-11
1.07323e-11
1.22883e-10
1.22732e-10
1.22409e-10
1.21869e-10
1.2104e-10
1.19817e-10
1.18052e-10
1.15548e-10
1.12056e-10
1.07283e-10
1.00916e-10
9.26825e-11
8.24594e-11
7.0415e-11
5.71479e-11
4.37172e-11
3.14448e-11
2.14776e-11
1.4334e-11
9.78196e-12
5.44909e-11
5.44312e-11
5.43036e-11
5.40913e-11
5.37667e-11
5.32899e-11
5.26059e-11
5.16424e-11
5.03093e-11
4.85016e-11
4.61091e-11
4.30368e-11
3.92378e-11
3.4756e-11
2.97657e-11
2.45823e-11
1.96155e-11
1.52621e-11
1.17821e-11
9.23252e-12
2.98268e-11
2.98e-11
2.97427e-11
2.96476e-11
2.95029e-11
2.92912e-11
2.89892e-11
2.85663e-11
2.79849e-11
2.72013e-11
2.61698e-11
2.485e-11
2.32187e-11
2.12841e-11
1.91005e-11
1.67736e-11
1.44495e-11
1.22855e-11
1.04108e-11
8.89661e-12
1.94852e-11
1.94717e-11
1.94429e-11
1.93953e-11
1.9323e-11
1.92179e-11
1.90686e-11
1.88606e-11
1.85763e-11
1.81951e-11
1.76953e-11
1.70573e-11
1.62681e-11
1.53268e-11
1.42512e-11
1.30803e-11
1.18724e-11
1.0696e-11
9.61698e-12
8.68416e-12
1.45795e-11
1.45721e-11
1.45562e-11
1.453e-11
1.44905e-11
1.44332e-11
1.43522e-11
1.424e-11
1.40874e-11
1.38838e-11
1.3618e-11
1.32793e-11
1.28602e-11
1.23583e-11
1.17794e-11
1.11392e-11
1.04631e-11
9.78353e-12
9.13479e-12
8.54698e-12
1.20168e-11
1.20124e-11
1.2003e-11
1.19875e-11
1.19643e-11
1.19307e-11
1.18835e-11
1.18185e-11
1.17305e-11
1.16137e-11
1.14618e-11
1.12689e-11
1.10303e-11
1.07441e-11
1.0412e-11
1.00408e-11
9.64271e-12
9.23383e-12
8.83271e-12
8.45732e-12
1.05774e-11
1.05747e-11
1.05688e-11
1.05592e-11
1.05447e-11
1.0524e-11
1.0495e-11
1.04552e-11
1.04018e-11
1.03311e-11
1.02398e-11
1.01241e-11
9.98146e-12
9.81027e-12
9.61114e-12
9.38728e-12
9.14473e-12
8.89212e-12
8.63977e-12
8.39833e-12
9.72538e-12
9.72358e-12
9.71977e-12
9.71354e-12
9.70423e-12
9.69093e-12
9.67244e-12
9.64723e-12
9.61352e-12
9.56926e-12
9.51229e-12
9.44053e-12
9.3523e-12
9.24661e-12
9.12366e-12
8.98506e-12
8.83407e-12
8.67546e-12
8.51513e-12
8.35943e-12
9.2022e-12
9.20099e-12
9.19846e-12
9.19433e-12
9.18818e-12
9.17944e-12
9.16736e-12
9.15099e-12
9.12923e-12
9.10083e-12
9.06449e-12
9.01895e-12
8.9632e-12
8.89664e-12
8.81932e-12
8.73215e-12
8.63695e-12
8.53646e-12
8.43414e-12
8.3338e-12
8.87301e-12
8.8722e-12
8.87049e-12
8.86771e-12
8.8636e-12
8.85778e-12
8.84977e-12
8.83899e-12
8.82475e-12
8.80628e-12
8.78279e-12
8.75352e-12
8.71787e-12
8.67547e-12
8.62636e-12
8.57106e-12
8.51066e-12
8.44676e-12
8.38143e-12
8.31695e-12
8.66276e-12
8.66221e-12
8.66105e-12
8.65917e-12
8.6564e-12
8.6525e-12
8.64716e-12
8.64002e-12
8.63065e-12
8.61856e-12
8.60329e-12
8.58437e-12
8.56144e-12
8.5343e-12
8.50298e-12
8.4678e-12
8.42942e-12
8.38879e-12
8.34716e-12
8.30593e-12
8.5274e-12
8.52702e-12
8.52624e-12
8.52497e-12
8.5231e-12
8.52048e-12
8.51693e-12
8.5122e-12
8.50602e-12
8.49811e-12
8.48817e-12
8.47594e-12
8.46119e-12
8.44381e-12
8.42384e-12
8.40148e-12
8.37713e-12
8.35138e-12
8.32497e-12
8.29876e-12
8.44001e-12
8.43976e-12
8.43923e-12
8.43837e-12
8.43712e-12
8.43537e-12
8.43301e-12
8.42989e-12
8.42584e-12
8.42068e-12
8.41424e-12
8.40634e-12
8.39689e-12
8.3858e-12
8.37311e-12
8.35895e-12
8.34357e-12
8.32732e-12
8.31067e-12
8.29412e-12
8.38367e-12
8.3835e-12
8.38314e-12
8.38257e-12
8.38174e-12
8.38058e-12
8.37902e-12
8.37698e-12
8.37434e-12
8.37099e-12
8.36684e-12
8.36178e-12
8.35575e-12
8.34871e-12
8.3407e-12
8.33178e-12
8.32212e-12
8.31194e-12
8.30152e-12
8.29115e-12
8.34749e-12
8.34737e-12
8.34714e-12
8.34676e-12
8.34621e-12
8.34545e-12
8.34444e-12
8.3431e-12
8.3414e-12
8.33925e-12
8.33659e-12
8.33338e-12
8.32956e-12
8.32513e-12
8.3201e-12
8.31453e-12
8.30851e-12
8.30218e-12
8.2957e-12
8.28926e-12
8.3244e-12
8.32433e-12
8.32417e-12
8.32392e-12
8.32356e-12
8.32307e-12
8.32241e-12
8.32156e-12
8.32047e-12
8.3191e-12
8.31742e-12
8.31539e-12
8.313e-12
8.31023e-12
8.3071e-12
8.30365e-12
8.29993e-12
8.29602e-12
8.29203e-12
8.28806e-12
8.30978e-12
8.30973e-12
8.30963e-12
8.30947e-12
8.30924e-12
8.30892e-12
8.30851e-12
8.30796e-12
8.30727e-12
8.30641e-12
8.30535e-12
8.30409e-12
8.3026e-12
8.30089e-12
8.29896e-12
8.29684e-12
8.29456e-12
8.29217e-12
8.28974e-12
8.28732e-12
8.30061e-12
8.30057e-12
8.30051e-12
8.30041e-12
8.30026e-12
8.30006e-12
8.2998e-12
8.29945e-12
8.29902e-12
8.29849e-12
8.29783e-12
8.29705e-12
8.29614e-12
8.29509e-12
8.29391e-12
8.29262e-12
8.29124e-12
8.28979e-12
8.28832e-12
8.28686e-12
8.2949e-12
8.29488e-12
8.29484e-12
8.29478e-12
8.29469e-12
8.29456e-12
8.2944e-12
8.29418e-12
8.29392e-12
8.29359e-12
8.29319e-12
8.29271e-12
8.29215e-12
8.29152e-12
8.29081e-12
8.29003e-12
8.2892e-12
8.28833e-12
8.28745e-12
8.28657e-12
8.29139e-12
8.29138e-12
8.29136e-12
8.29132e-12
8.29126e-12
8.29118e-12
8.29108e-12
8.29095e-12
8.29079e-12
8.29059e-12
8.29034e-12
8.29006e-12
8.28972e-12
8.28934e-12
8.28892e-12
8.28845e-12
8.28796e-12
8.28744e-12
8.28692e-12
8.2864e-12
8.28926e-12
8.28925e-12
8.28924e-12
8.28921e-12
8.28918e-12
8.28913e-12
8.28907e-12
8.28899e-12
8.28889e-12
8.28877e-12
8.28862e-12
8.28845e-12
8.28825e-12
8.28803e-12
8.28778e-12
8.2875e-12
8.28721e-12
8.28691e-12
8.2866e-12
8.2863e-12
8.28797e-12
8.28797e-12
8.28796e-12
8.28794e-12
8.28792e-12
8.2879e-12
8.28786e-12
8.28781e-12
8.28775e-12
8.28768e-12
8.28759e-12
8.28749e-12
8.28738e-12
8.28724e-12
8.2871e-12
8.28694e-12
8.28677e-12
8.28659e-12
8.28641e-12
8.28624e-12
8.28721e-12
8.28721e-12
8.2872e-12
8.28719e-12
8.28718e-12
8.28716e-12
8.28714e-12
8.28711e-12
8.28708e-12
8.28704e-12
8.28698e-12
8.28693e-12
8.28686e-12
8.28678e-12
8.2867e-12
8.2866e-12
8.28651e-12
8.2864e-12
8.2863e-12
8.2862e-12
8.28676e-12
8.28676e-12
8.28675e-12
8.28675e-12
8.28674e-12
8.28673e-12
8.28672e-12
8.2867e-12
8.28668e-12
8.28666e-12
8.28663e-12
8.28659e-12
8.28655e-12
8.28651e-12
8.28646e-12
8.28641e-12
8.28635e-12
8.28629e-12
8.28624e-12
8.28618e-12
8.28649e-12
8.28649e-12
8.28649e-12
8.28649e-12
8.28648e-12
8.28648e-12
8.28647e-12
8.28646e-12
8.28645e-12
8.28644e-12
8.28642e-12
8.2864e-12
8.28638e-12
8.28635e-12
8.28633e-12
8.2863e-12
8.28626e-12
8.28623e-12
8.2862e-12
8.28617e-12
8.28634e-12
8.28634e-12
8.28634e-12
8.28634e-12
8.28634e-12
8.28633e-12
8.28633e-12
8.28632e-12
8.28632e-12
8.28631e-12
8.2863e-12
8.28629e-12
8.28628e-12
8.28626e-12
8.28625e-12
8.28623e-12
8.28621e-12
8.2862e-12
8.28618e-12
8.28616e-12
8.28626e-12
8.28626e-12
8.28626e-12
8.28626e-12
8.28625e-12
8.28625e-12
8.28625e-12
8.28625e-12
8.28624e-12
8.28624e-12
8.28623e-12
8.28623e-12
8.28622e-12
8.28621e-12
8.2862e-12
8.28619e-12
8.28619e-12
8.28618e-12
8.28616e-12
8.28615e-12
8.28621e-12
8.28621e-12
8.28621e-12
8.28621e-12
8.28621e-12
8.28621e-12
8.2862e-12
8.2862e-12
8.2862e-12
8.2862e-12
8.2862e-12
8.28619e-12
8.28619e-12
8.28618e-12
8.28618e-12
8.28617e-12
8.28617e-12
8.28616e-12
8.28616e-12
8.28615e-12
8.28618e-12
8.28618e-12
8.28618e-12
8.28618e-12
8.28618e-12
8.28618e-12
8.28618e-12
8.28618e-12
8.28618e-12
8.28618e-12
8.28617e-12
8.28617e-12
8.28617e-12
8.28617e-12
8.28617e-12
8.28616e-12
8.28616e-12
8.28616e-12
8.28615e-12
8.28615e-12
8.28617e-12
8.28617e-12
8.28617e-12
8.28617e-12
8.28617e-12
8.28617e-12
8.28617e-12
8.28617e-12
8.28616e-12
8.28616e-12
8.28616e-12
8.28616e-12
8.28616e-12
8.28616e-12
8.28616e-12
8.28616e-12
8.28616e-12
8.28615e-12
8.28615e-12
8.28615e-12
8.28616e-12
8.28616e-12
8.28616e-12
8.28616e-12
8.28616e-12
8.28616e-12
8.28616e-12
8.28616e-12
8.28616e-12
8.28616e-12
8.28616e-12
8.28616e-12
8.28616e-12
8.28616e-12
8.28615e-12
8.28615e-12
8.28615e-12
8.28615e-12
8.28615e-12
8.28615e-12
8.28615e-12
8.28615e-12
8.28615e-12
8.28615e-12
8.28615e-12
8.28615e-12
8.28615e-12
8.28615e-12
8.28615e-12
8.28615e-12
8.28615e-12
8.28615e-12
8.28615e-12
8.28615e-12
8.28615e-12
8.28615e-12
8.28615e-12
8.28615e-12
8.28615e-12
8.28615e-12
8.28615e-12
8.28615e-12
8.28615e-12
8.28615e-12
8.28615e-12
8.28615e-12
8.28615e-12
8.28615e-12
8.28615e-12
8.28615e-12
8.28615e-12
8.28615e-12
8.28615e-12
8.28615e-12
8.28615e-12
8.28615e-12
8.28615e-12
8.28615e-12
8.28615e-12
8.28615e-12
8.28615e-12
8.28615e-12
8.28615e-12
8.28615e-12
8.28615e-12
8.28615e-12
8.28615e-12
8.28615e-12
8.28615e-12
8.28615e-12
8.28615e-12
8.28615e-12
8.28615e-12
8.28615e-12
8.28615e-12
8.28615e-12
8.28615e-12
8.28615e-12
8.28615e-12
8.28615e-12
8.28615e-12
8.28615e-12
8.28615e-12
8.28615e-12
8.28615e-12
8.28615e-12
8.28615e-12
8.28615e-12
8.28615e-12
8.28615e-12
8.28615e-12
8.28615e-12
8.28615e-12
8.28615e-12
8.28615e-12
8.28615e-12
8.28615e-12
8.28615e-12
8.28615e-12
8.28615e-12
8.28615e-12
8.28615e-12
8.28615e-12
8.28615e-12
8.28615e-12
8.28615e-12
8.28615e-12
8.28615e-12
8.28615e-12
8.28615e-12
8.28615e-12
8.28615e-12
8.28615e-12
8.28615e-12
8.28615e-12
8.28615e-12
8.28615e-12
8.28615e-12
8.28615e-12
8.28615e-12
8.28615e-12
8.28615e-12
8.28615e-12
8.28615e-12
8.28615e-12
8.28615e-12
8.28615e-12
8.28615e-12
8.28615e-12
8.28615e-12
8.28615e-12
8.28615e-12
8.28615e-12
8.28615e-12
8.28615e-12
8.28615e-12
8.28615e-12
8.28615e-12
8.28615e-12
8.28615e-12
8.28615e-12
8.28615e-12
8.28615e-12
8.28615e-12
8.28615e-12
8.28615e-12
8.28615e-12
8.28615e-12
8.28615e-12
8.28615e-12
8.28615e-12
8.28615e-12
8.28615e-12
8.28615e-12
8.28615e-12
8.28615e-12
8.28615e-12
8.28615e-12
8.28615e-12
8.28615e-12
8.28615e-12
8.28615e-12
8.28615e-12
8.28615e-12
8.28615e-12
8.28615e-12
8.28615e-12
8.28615e-12
8.28615e-12
8.28615e-12
8.28615e-12
8.28615e-12
8.28615e-12
8.28615e-12
8.28615e-12
8.28615e-12
8.28615e-12
8.28615e-12
8.28615e-12
8.28615e-12
)
;

boundaryField
{
    topWall
    {
        type            zeroGradient;
    }
    bottomWall
    {
        type            zeroGradient;
    }
    sideWallL
    {
        type            symmetry;
    }
    sideWallR
    {
        type            zeroGradient;
    }
    frontAndBack
    {
        type            empty;
    }
}


// ************************************************************************* //
