/*--------------------------------*- C++ -*----------------------------------*\
  =========                 |
  \\      /  F ield         | OpenFOAM: The Open Source CFD Toolbox
   \\    /   O peration     | Website:  https://openfoam.org
    \\  /    A nd           | Version:  7
     \\/     M anipulation  |
\*---------------------------------------------------------------------------*/
FoamFile
{
    version     2.0;
    format      ascii;
    class       volScalarField;
    location    "13";
    object      rhot2;
}
// * * * * * * * * * * * * * * * * * * * * * * * * * * * * * * * * * * * * * //

dimensions      [1 -3 0 0 0 0 0];

internalField   nonuniform List<scalar> 
900
(
8.48723e-16
8.48418e-16
8.47762e-16
8.46649e-16
8.44908e-16
8.42264e-16
8.38307e-16
8.32417e-16
8.23678e-16
8.10721e-16
7.91521e-16
7.63075e-16
7.20981e-16
6.58937e-16
5.68463e-16
4.40204e-16
2.71891e-16
9.64212e-17
6.43169e-18
6.39033e-22
3.68962e-18
3.68536e-18
3.67619e-18
3.66071e-18
3.63659e-18
3.60024e-18
3.54639e-18
3.46748e-18
3.35296e-18
3.18861e-18
2.95644e-18
2.63613e-18
2.21045e-18
1.67843e-18
1.07942e-18
5.18676e-19
1.44827e-19
1.36858e-20
1.27928e-22
8.48323e-27
2.45023e-20
2.44538e-20
2.43496e-20
2.41745e-20
2.39031e-20
2.34979e-20
2.29049e-20
2.20512e-20
2.08424e-20
1.91681e-20
1.69193e-20
1.40344e-20
1.05827e-20
6.87713e-21
3.52704e-21
1.23009e-21
2.25677e-22
1.40235e-23
1.4842e-25
1.66624e-28
2.67519e-22
2.66791e-22
2.6523e-22
2.62618e-22
2.58596e-22
2.52645e-22
2.44047e-22
2.3188e-22
2.15063e-22
1.92519e-22
1.63576e-22
1.28663e-22
9.02311e-23
5.33018e-23
2.43274e-23
7.52976e-24
1.30593e-24
9.86401e-26
2.61143e-27
3.41503e-29
5.04987e-24
5.03331e-24
4.99791e-24
4.93889e-24
4.84863e-24
4.71617e-24
4.52699e-24
4.26334e-24
3.90612e-24
3.43962e-24
2.86052e-24
2.19103e-24
1.4913e-24
8.57428e-25
3.88224e-25
1.26135e-25
2.63166e-26
3.20236e-27
2.34926e-28
1.59369e-29
1.69299e-25
1.68695e-25
1.67405e-25
1.65263e-25
1.62005e-25
1.57258e-25
1.5054e-25
1.41286e-25
1.28926e-25
1.13058e-25
9.37441e-26
7.18802e-26
4.94649e-26
2.93769e-26
1.43423e-26
5.451e-27
1.53916e-27
3.21681e-28
5.54947e-29
1.05147e-29
1.01496e-26
1.01135e-26
1.00366e-26
9.90932e-27
9.71649e-27
9.43709e-27
9.04427e-27
8.50715e-27
7.79545e-27
6.88891e-27
5.7922e-27
4.55269e-27
3.27184e-27
2.09382e-27
1.1597e-27
5.42463e-28
2.12659e-28
7.20752e-29
2.31925e-29
8.22748e-30
1.07771e-27
1.07421e-27
1.06677e-27
1.05448e-27
1.03592e-27
1.00913e-27
9.71601e-28
9.20469e-28
8.52882e-28
7.66787e-28
6.62141e-28
5.42346e-28
4.15256e-28
2.92644e-28
1.8724e-28
1.08024e-28
5.66339e-29
2.78344e-29
1.35837e-29
7.06943e-30
1.96756e-28
1.96222e-28
1.95088e-28
1.93218e-28
1.904e-28
1.86342e-28
1.80668e-28
1.72943e-28
1.62716e-28
1.49622e-28
1.33528e-28
1.14723e-28
9.40745e-29
7.30361e-29
5.33941e-29
3.67653e-29
2.40671e-29
1.52934e-29
9.73146e-30
6.41839e-30
5.81093e-29
5.79877e-29
5.77296e-29
5.73047e-29
5.66656e-29
5.57464e-29
5.44624e-29
5.27132e-29
5.03907e-29
4.73965e-29
4.36692e-29
3.92206e-29
3.41707e-29
2.87652e-29
2.33525e-29
1.83144e-29
1.39681e-29
1.04866e-29
7.87831e-30
6.0285e-30
2.52964e-29
2.52579e-29
2.51764e-29
2.50423e-29
2.4841e-29
2.4552e-29
2.41486e-29
2.3599e-29
2.28673e-29
2.19187e-29
2.07251e-29
1.92754e-29
1.75858e-29
1.57069e-29
1.37247e-29
1.17495e-29
9.89481e-30
8.25324e-30
6.87932e-30
5.78569e-30
1.46241e-29
1.46085e-29
1.45754e-29
1.45212e-29
1.44399e-29
1.43234e-29
1.41612e-29
1.39402e-29
1.36459e-29
1.3263e-29
1.27778e-29
1.21815e-29
1.14737e-29
1.06657e-29
9.78235e-30
8.86074e-30
7.94516e-30
7.07968e-30
6.3005e-30
5.63079e-30
1.02518e-29
1.02442e-29
1.02282e-29
1.02019e-29
1.01627e-29
1.01067e-29
1.00289e-29
9.9232e-30
9.7825e-30
9.59929e-30
9.36641e-30
9.07827e-30
8.7324e-30
8.331e-30
7.88211e-30
7.39973e-30
6.90275e-30
6.41245e-30
5.94941e-30
5.53055e-30
8.15031e-30
8.14615e-30
8.13738e-30
8.12306e-30
8.10172e-30
8.07134e-30
8.02928e-30
7.97232e-30
7.8967e-30
7.79837e-30
7.67334e-30
7.51823e-30
7.331e-30
7.11168e-30
6.86307e-30
6.59102e-30
6.30427e-30
6.01353e-30
5.73028e-30
5.46519e-30
7.02585e-30
7.02338e-30
7.01818e-30
7.0097e-30
6.99711e-30
6.97926e-30
6.95465e-30
6.92146e-30
6.87756e-30
6.82065e-30
6.74842e-30
6.65884e-30
6.55051e-30
6.42307e-30
6.27756e-30
6.11668e-30
5.94473e-30
5.7674e-30
5.59114e-30
5.42244e-30
6.38007e-30
6.37853e-30
6.37527e-30
6.36999e-30
6.36217e-30
6.35114e-30
6.33599e-30
6.31566e-30
6.2889e-30
6.25434e-30
6.21063e-30
6.15654e-30
6.09118e-30
6.01422e-30
5.92609e-30
5.82811e-30
5.72259e-30
5.61265e-30
5.50198e-30
5.39449e-30
5.99192e-30
5.99092e-30
5.98882e-30
5.98543e-30
5.98042e-30
5.97339e-30
5.96378e-30
5.95094e-30
5.93413e-30
5.91254e-30
5.88533e-30
5.85178e-30
5.81135e-30
5.7638e-30
5.70934e-30
5.64867e-30
5.58308e-30
5.51434e-30
5.44462e-30
5.37628e-30
5.75194e-30
5.75129e-30
5.74991e-30
5.74769e-30
5.74443e-30
5.73987e-30
5.73367e-30
5.72544e-30
5.71471e-30
5.70099e-30
5.6838e-30
5.66269e-30
5.63734e-30
5.60761e-30
5.5736e-30
5.53572e-30
5.49472e-30
5.45163e-30
5.40774e-30
5.36445e-30
5.60116e-30
5.60072e-30
5.59981e-30
5.59835e-30
5.59622e-30
5.59324e-30
5.58921e-30
5.58389e-30
5.577e-30
5.56823e-30
5.55729e-30
5.54393e-30
5.52795e-30
5.50927e-30
5.48795e-30
5.46425e-30
5.4386e-30
5.41162e-30
5.38408e-30
5.35683e-30
5.50567e-30
5.50538e-30
5.50478e-30
5.50382e-30
5.50242e-30
5.50048e-30
5.49786e-30
5.49442e-30
5.48999e-30
5.48438e-30
5.47742e-30
5.46896e-30
5.45888e-30
5.44715e-30
5.4338e-30
5.419e-30
5.40299e-30
5.38617e-30
5.36898e-30
5.35194e-30
5.44508e-30
5.44489e-30
5.4445e-30
5.44387e-30
5.44296e-30
5.44169e-30
5.44e-30
5.43779e-30
5.43495e-30
5.43137e-30
5.42696e-30
5.42162e-30
5.41529e-30
5.40795e-30
5.39963e-30
5.39042e-30
5.38049e-30
5.37006e-30
5.35941e-30
5.34884e-30
5.40673e-30
5.4066e-30
5.40635e-30
5.40594e-30
5.40534e-30
5.40453e-30
5.40344e-30
5.40203e-30
5.40022e-30
5.39796e-30
5.39518e-30
5.39184e-30
5.38789e-30
5.38332e-30
5.37817e-30
5.37248e-30
5.36636e-30
5.35994e-30
5.35338e-30
5.34688e-30
5.38257e-30
5.38249e-30
5.38232e-30
5.38206e-30
5.38168e-30
5.38116e-30
5.38047e-30
5.37957e-30
5.37843e-30
5.37701e-30
5.37528e-30
5.3732e-30
5.37075e-30
5.36794e-30
5.36477e-30
5.36128e-30
5.35754e-30
5.35362e-30
5.34962e-30
5.34566e-30
5.36746e-30
5.36741e-30
5.3673e-30
5.36713e-30
5.36689e-30
5.36656e-30
5.36613e-30
5.36557e-30
5.36486e-30
5.36398e-30
5.3629e-30
5.36162e-30
5.36012e-30
5.3584e-30
5.35647e-30
5.35435e-30
5.35208e-30
5.34971e-30
5.3473e-30
5.3449e-30
5.35809e-30
5.35806e-30
5.35799e-30
5.35788e-30
5.35773e-30
5.35753e-30
5.35726e-30
5.35691e-30
5.35647e-30
5.35593e-30
5.35527e-30
5.35449e-30
5.35358e-30
5.35254e-30
5.35137e-30
5.3501e-30
5.34874e-30
5.34732e-30
5.34587e-30
5.34444e-30
5.35233e-30
5.35231e-30
5.35227e-30
5.35221e-30
5.35211e-30
5.35199e-30
5.35182e-30
5.35161e-30
5.35134e-30
5.35101e-30
5.35061e-30
5.35014e-30
5.34959e-30
5.34897e-30
5.34827e-30
5.34751e-30
5.3467e-30
5.34586e-30
5.345e-30
5.34415e-30
5.34883e-30
5.34882e-30
5.3488e-30
5.34876e-30
5.3487e-30
5.34862e-30
5.34852e-30
5.34839e-30
5.34823e-30
5.34803e-30
5.34779e-30
5.34751e-30
5.34719e-30
5.34682e-30
5.34641e-30
5.34596e-30
5.34548e-30
5.34499e-30
5.34448e-30
5.34398e-30
5.34673e-30
5.34672e-30
5.34671e-30
5.34668e-30
5.34665e-30
5.3466e-30
5.34654e-30
5.34646e-30
5.34637e-30
5.34625e-30
5.34611e-30
5.34594e-30
5.34575e-30
5.34553e-30
5.34529e-30
5.34503e-30
5.34475e-30
5.34447e-30
5.34417e-30
5.34388e-30
5.34547e-30
5.34547e-30
5.34546e-30
5.34545e-30
5.34543e-30
5.3454e-30
5.34536e-30
5.34532e-30
5.34526e-30
5.34519e-30
5.34511e-30
5.34501e-30
5.3449e-30
5.34478e-30
5.34464e-30
5.34449e-30
5.34433e-30
5.34416e-30
5.34399e-30
5.34382e-30
5.34474e-30
5.34473e-30
5.34473e-30
5.34472e-30
5.34471e-30
5.34469e-30
5.34467e-30
5.34464e-30
5.34461e-30
5.34457e-30
5.34452e-30
5.34447e-30
5.3444e-30
5.34433e-30
5.34425e-30
5.34417e-30
5.34407e-30
5.34398e-30
5.34388e-30
5.34379e-30
5.34431e-30
5.34431e-30
5.3443e-30
5.3443e-30
5.34429e-30
5.34428e-30
5.34427e-30
5.34425e-30
5.34424e-30
5.34421e-30
5.34419e-30
5.34415e-30
5.34412e-30
5.34408e-30
5.34403e-30
5.34398e-30
5.34393e-30
5.34388e-30
5.34382e-30
5.34377e-30
5.34406e-30
5.34406e-30
5.34406e-30
5.34405e-30
5.34405e-30
5.34405e-30
5.34404e-30
5.34403e-30
5.34402e-30
5.34401e-30
5.34399e-30
5.34397e-30
5.34395e-30
5.34393e-30
5.3439e-30
5.34388e-30
5.34385e-30
5.34382e-30
5.34379e-30
5.34376e-30
5.34392e-30
5.34392e-30
5.34392e-30
5.34392e-30
5.34391e-30
5.34391e-30
5.34391e-30
5.3439e-30
5.3439e-30
5.34389e-30
5.34388e-30
5.34387e-30
5.34386e-30
5.34385e-30
5.34383e-30
5.34382e-30
5.3438e-30
5.34379e-30
5.34377e-30
5.34375e-30
5.34384e-30
5.34384e-30
5.34384e-30
5.34384e-30
5.34384e-30
5.34384e-30
5.34383e-30
5.34383e-30
5.34383e-30
5.34382e-30
5.34382e-30
5.34381e-30
5.34381e-30
5.3438e-30
5.34379e-30
5.34378e-30
5.34378e-30
5.34377e-30
5.34376e-30
5.34375e-30
5.3438e-30
5.3438e-30
5.3438e-30
5.3438e-30
5.34379e-30
5.34379e-30
5.34379e-30
5.34379e-30
5.34379e-30
5.34379e-30
5.34378e-30
5.34378e-30
5.34378e-30
5.34377e-30
5.34377e-30
5.34377e-30
5.34376e-30
5.34376e-30
5.34375e-30
5.34375e-30
5.34377e-30
5.34377e-30
5.34377e-30
5.34377e-30
5.34377e-30
5.34377e-30
5.34377e-30
5.34377e-30
5.34377e-30
5.34377e-30
5.34377e-30
5.34376e-30
5.34376e-30
5.34376e-30
5.34376e-30
5.34376e-30
5.34375e-30
5.34375e-30
5.34375e-30
5.34375e-30
5.34376e-30
5.34376e-30
5.34376e-30
5.34376e-30
5.34376e-30
5.34376e-30
5.34376e-30
5.34376e-30
5.34376e-30
5.34376e-30
5.34376e-30
5.34375e-30
5.34375e-30
5.34375e-30
5.34375e-30
5.34375e-30
5.34375e-30
5.34375e-30
5.34375e-30
5.34374e-30
5.34375e-30
5.34375e-30
5.34375e-30
5.34375e-30
5.34375e-30
5.34375e-30
5.34375e-30
5.34375e-30
5.34375e-30
5.34375e-30
5.34375e-30
5.34375e-30
5.34375e-30
5.34375e-30
5.34375e-30
5.34375e-30
5.34375e-30
5.34375e-30
5.34375e-30
5.34374e-30
5.34375e-30
5.34375e-30
5.34375e-30
5.34375e-30
5.34375e-30
5.34375e-30
5.34375e-30
5.34375e-30
5.34375e-30
5.34375e-30
5.34375e-30
5.34375e-30
5.34375e-30
5.34375e-30
5.34375e-30
5.34375e-30
5.34375e-30
5.34375e-30
5.34374e-30
5.34374e-30
5.34375e-30
5.34375e-30
5.34375e-30
5.34375e-30
5.34375e-30
5.34375e-30
5.34375e-30
5.34375e-30
5.34375e-30
5.34375e-30
5.34375e-30
5.34375e-30
5.34375e-30
5.34375e-30
5.34375e-30
5.34375e-30
5.34374e-30
5.34374e-30
5.34374e-30
5.34374e-30
5.34375e-30
5.34375e-30
5.34375e-30
5.34375e-30
5.34375e-30
5.34375e-30
5.34375e-30
5.34375e-30
5.34375e-30
5.34375e-30
5.34375e-30
5.34374e-30
5.34374e-30
5.34374e-30
5.34374e-30
5.34374e-30
5.34374e-30
5.34374e-30
5.34374e-30
5.34374e-30
5.34374e-30
5.34374e-30
5.34374e-30
5.34374e-30
5.34374e-30
5.34374e-30
5.34374e-30
5.34374e-30
5.34374e-30
5.34374e-30
5.34374e-30
5.34374e-30
5.34374e-30
5.34374e-30
5.34374e-30
5.34374e-30
5.34374e-30
5.34374e-30
5.34374e-30
5.34374e-30
5.34374e-30
5.34374e-30
5.34374e-30
5.34374e-30
5.34374e-30
5.34374e-30
5.34374e-30
5.34374e-30
5.34374e-30
5.34374e-30
5.34374e-30
5.34374e-30
5.34374e-30
5.34374e-30
5.34374e-30
5.34374e-30
5.34374e-30
5.34374e-30
5.34374e-30
5.34374e-30
5.34374e-30
5.34374e-30
5.34374e-30
5.34374e-30
5.34374e-30
5.34374e-30
5.34374e-30
5.34374e-30
5.34374e-30
5.34374e-30
5.34374e-30
5.34374e-30
5.34374e-30
5.34374e-30
5.34374e-30
5.34374e-30
5.34374e-30
5.34374e-30
5.34374e-30
5.34374e-30
5.34374e-30
5.34374e-30
5.34374e-30
5.34374e-30
5.34374e-30
5.34374e-30
5.34374e-30
5.34374e-30
5.34374e-30
5.34374e-30
5.34374e-30
5.34374e-30
5.34374e-30
5.34374e-30
5.34374e-30
5.34374e-30
5.34374e-30
5.34374e-30
5.34374e-30
5.34374e-30
)
;

boundaryField
{
    topWall
    {
        type            zeroGradient;
    }
    bottomWall
    {
        type            zeroGradient;
    }
    sideWallL
    {
        type            symmetry;
    }
    sideWallR
    {
        type            zeroGradient;
    }
    frontAndBack
    {
        type            empty;
    }
}


// ************************************************************************* //
