/*--------------------------------*- C++ -*----------------------------------*\
  =========                 |
  \\      /  F ield         | OpenFOAM: The Open Source CFD Toolbox
   \\    /   O peration     | Website:  https://openfoam.org
    \\  /    A nd           | Version:  7
     \\/     M anipulation  |
\*---------------------------------------------------------------------------*/
FoamFile
{
    version     2.0;
    format      ascii;
    class       volScalarField;
    location    "13";
    object      rhot1;
}
// * * * * * * * * * * * * * * * * * * * * * * * * * * * * * * * * * * * * * //

dimensions      [1 -3 0 0 0 0 0];

internalField   nonuniform List<scalar> 
900
(
1.34064e-07
1.34039e-07
1.33986e-07
1.33895e-07
1.33753e-07
1.33538e-07
1.33215e-07
1.32733e-07
1.32015e-07
1.30944e-07
1.29342e-07
1.26934e-07
1.2329e-07
1.17726e-07
1.09136e-07
9.57209e-08
7.4764e-08
4.39375e-08
1.09628e-08
9.70094e-11
8.27334e-09
8.26842e-09
8.25782e-09
8.2399e-09
8.2119e-09
8.16957e-09
8.10649e-09
8.01324e-09
7.87609e-09
7.67529e-09
7.38294e-09
6.96071e-09
6.35894e-09
5.52088e-09
4.40177e-09
3.02215e-09
1.57064e-09
4.68218e-10
4.25741e-11
3.03645e-13
6.33869e-10
6.33223e-10
6.31832e-10
6.29487e-10
6.25839e-10
6.20355e-10
6.12251e-10
6.00404e-10
5.8325e-10
5.58676e-10
5.23975e-10
4.75995e-10
4.11753e-10
3.30005e-10
2.34228e-10
1.36397e-10
5.7118e-11
1.37179e-11
1.32586e-12
4.01091e-14
6.26036e-11
6.25157e-11
6.23269e-11
6.20098e-11
6.15188e-11
6.07856e-11
5.97117e-11
5.81607e-11
5.59509e-11
5.28536e-11
4.86069e-11
4.29639e-11
3.58029e-11
2.73188e-11
1.82586e-11
9.99617e-12
4.06379e-12
1.07721e-12
1.66194e-13
1.76886e-14
8.17811e-12
8.16426e-12
8.13459e-12
8.0849e-12
8.00838e-12
7.89486e-12
7.73007e-12
7.49482e-12
7.16463e-12
6.71064e-12
6.10333e-12
5.32107e-12
4.36583e-12
3.28444e-12
2.18531e-12
1.22581e-12
5.47363e-13
1.85026e-13
4.80579e-14
1.19238e-14
1.43252e-12
1.42987e-12
1.42421e-12
1.41477e-12
1.4003e-12
1.37897e-12
1.34826e-12
1.30487e-12
1.24471e-12
1.16326e-12
1.05623e-12
9.212e-13
7.59914e-13
5.81075e-13
4.01662e-13
2.44007e-13
1.27126e-13
5.66436e-14
2.28023e-14
9.61299e-15
3.37579e-13
3.36957e-13
3.35628e-13
3.33418e-13
3.30046e-13
3.25103e-13
3.18036e-13
3.08132e-13
2.94535e-13
2.7632e-13
2.52659e-13
2.2313e-13
1.88151e-13
1.49433e-13
1.10142e-13
7.43792e-14
4.582e-14
2.61514e-14
1.45101e-14
8.46516e-15
1.0647e-13
1.0629e-13
1.05907e-13
1.05272e-13
1.04306e-13
1.02897e-13
1.00895e-13
9.81066e-14
9.4305e-14
8.9247e-14
8.27158e-14
7.45936e-14
6.49598e-14
5.41894e-14
4.29922e-14
3.23192e-14
2.31092e-14
1.597e-14
1.09917e-14
7.82469e-15
4.42605e-14
4.41978e-14
4.40643e-14
4.38435e-14
4.3509e-14
4.30231e-14
4.23356e-14
4.1383e-14
4.00905e-14
3.83779e-14
3.61715e-14
3.34251e-14
3.01465e-14
2.64258e-14
2.24492e-14
1.84832e-14
1.482e-14
1.16989e-14
9.24242e-15
7.44214e-15
2.3521e-14
2.34952e-14
2.34403e-14
2.33497e-14
2.32128e-14
2.30148e-14
2.27357e-14
2.23506e-14
2.18299e-14
2.11417e-14
2.02556e-14
1.91495e-14
1.78188e-14
1.62854e-14
1.46047e-14
1.2863e-14
1.11653e-14
9.61301e-15
8.28087e-15
7.20398e-15
1.52545e-14
1.52422e-14
1.52163e-14
1.51736e-14
1.51093e-14
1.50166e-14
1.48864e-14
1.47074e-14
1.44662e-14
1.41481e-14
1.37385e-14
1.3226e-14
1.26052e-14
1.18807e-14
1.10705e-14
1.0206e-14
9.32912e-15
8.48575e-15
7.71695e-15
7.05184e-15
1.14569e-14
1.14505e-14
1.14368e-14
1.14143e-14
1.13806e-14
1.13321e-14
1.12643e-14
1.11715e-14
1.10468e-14
1.08828e-14
1.06718e-14
1.04074e-14
1.00856e-14
9.70678e-15
9.27699e-15
8.80878e-15
8.32052e-15
7.8342e-15
7.37207e-15
6.95315e-15
9.51347e-15
9.50976e-15
9.50191e-15
9.48906e-15
9.46983e-15
9.4423e-15
9.40395e-15
9.35165e-15
9.28167e-15
9.1899e-15
9.07211e-15
8.92453e-15
8.74455e-15
8.53153e-15
8.28765e-15
8.01834e-15
7.73225e-15
7.44053e-15
7.15542e-15
6.88856e-15
8.43704e-15
8.43477e-15
8.42999e-15
8.42217e-15
8.41052e-15
8.39391e-15
8.37088e-15
8.3396e-15
8.29795e-15
8.24353e-15
8.17391e-15
8.08685e-15
7.98068e-15
7.85475e-15
7.70987e-15
7.54857e-15
7.37523e-15
7.19577e-15
7.01706e-15
6.84612e-15
7.80648e-15
7.80504e-15
7.802e-15
7.79704e-15
7.78968e-15
7.77923e-15
7.76482e-15
7.74534e-15
7.71953e-15
7.68596e-15
7.6432e-15
7.58988e-15
7.52499e-15
7.44805e-15
7.35936e-15
7.26022e-15
7.15296e-15
7.04086e-15
6.92788e-15
6.81823e-15
7.42271e-15
7.42176e-15
7.41977e-15
7.41655e-15
7.41177e-15
7.40502e-15
7.39576e-15
7.38331e-15
7.3669e-15
7.34567e-15
7.31874e-15
7.28532e-15
7.24477e-15
7.19678e-15
7.14149e-15
7.0796e-15
7.01242e-15
6.94184e-15
6.87016e-15
6.79993e-15
7.18323e-15
7.1826e-15
7.18128e-15
7.17915e-15
7.176e-15
7.17158e-15
7.16553e-15
7.15746e-15
7.14687e-15
7.13324e-15
7.11606e-15
7.09482e-15
7.06916e-15
7.03889e-15
7.00408e-15
6.96513e-15
6.92282e-15
6.87825e-15
6.83279e-15
6.78797e-15
7.03154e-15
7.03112e-15
7.03024e-15
7.02882e-15
7.02673e-15
7.02381e-15
7.01984e-15
7.01457e-15
7.00769e-15
6.99889e-15
6.98785e-15
6.97428e-15
6.95795e-15
6.93876e-15
6.91676e-15
6.8922e-15
6.86552e-15
6.8374e-15
6.80865e-15
6.78019e-15
6.93472e-15
6.93444e-15
6.93385e-15
6.9329e-15
6.93152e-15
6.92959e-15
6.92698e-15
6.92353e-15
6.91906e-15
6.91337e-15
6.90628e-15
6.8976e-15
6.88721e-15
6.87505e-15
6.86115e-15
6.84568e-15
6.8289e-15
6.81121e-15
6.79312e-15
6.77517e-15
6.87277e-15
6.87259e-15
6.87219e-15
6.87157e-15
6.87065e-15
6.86938e-15
6.86768e-15
6.86543e-15
6.86254e-15
6.85887e-15
6.85433e-15
6.84879e-15
6.8422e-15
6.83452e-15
6.82578e-15
6.81607e-15
6.80556e-15
6.7945e-15
6.78319e-15
6.77196e-15
6.83321e-15
6.83308e-15
6.83283e-15
6.83241e-15
6.83181e-15
6.83098e-15
6.82987e-15
6.82842e-15
6.82656e-15
6.82421e-15
6.82132e-15
6.81781e-15
6.81366e-15
6.80884e-15
6.80337e-15
6.79731e-15
6.79078e-15
6.78391e-15
6.77688e-15
6.76991e-15
6.80805e-15
6.80797e-15
6.8078e-15
6.80753e-15
6.80714e-15
6.80661e-15
6.80589e-15
6.80496e-15
6.80377e-15
6.80228e-15
6.80046e-15
6.79825e-15
6.79565e-15
6.79265e-15
6.78925e-15
6.7855e-15
6.78147e-15
6.77723e-15
6.77291e-15
6.76862e-15
6.79216e-15
6.79211e-15
6.792e-15
6.79183e-15
6.79158e-15
6.79123e-15
6.79078e-15
6.79019e-15
6.78944e-15
6.7885e-15
6.78736e-15
6.78598e-15
6.78437e-15
6.78251e-15
6.78042e-15
6.77812e-15
6.77565e-15
6.77307e-15
6.77043e-15
6.76781e-15
6.7822e-15
6.78217e-15
6.7821e-15
6.78199e-15
6.78183e-15
6.78161e-15
6.78133e-15
6.78096e-15
6.78049e-15
6.77991e-15
6.7792e-15
6.77835e-15
6.77736e-15
6.77622e-15
6.77495e-15
6.77355e-15
6.77205e-15
6.77049e-15
6.76889e-15
6.76731e-15
6.77602e-15
6.776e-15
6.77596e-15
6.77589e-15
6.77579e-15
6.77565e-15
6.77547e-15
6.77524e-15
6.77495e-15
6.7746e-15
6.77416e-15
6.77365e-15
6.77304e-15
6.77236e-15
6.77159e-15
6.77074e-15
6.76985e-15
6.76891e-15
6.76795e-15
6.767e-15
6.77222e-15
6.77221e-15
6.77218e-15
6.77214e-15
6.77208e-15
6.77199e-15
6.77188e-15
6.77174e-15
6.77157e-15
6.77135e-15
6.77109e-15
6.77077e-15
6.77041e-15
6.77e-15
6.76954e-15
6.76904e-15
6.7685e-15
6.76795e-15
6.76738e-15
6.76682e-15
6.76991e-15
6.7699e-15
6.76989e-15
6.76986e-15
6.76982e-15
6.76977e-15
6.7697e-15
6.76962e-15
6.76951e-15
6.76938e-15
6.76922e-15
6.76904e-15
6.76882e-15
6.76858e-15
6.76831e-15
6.76801e-15
6.76769e-15
6.76737e-15
6.76703e-15
6.7667e-15
6.76852e-15
6.76851e-15
6.7685e-15
6.76849e-15
6.76847e-15
6.76843e-15
6.76839e-15
6.76834e-15
6.76828e-15
6.7682e-15
6.76811e-15
6.768e-15
6.76787e-15
6.76773e-15
6.76757e-15
6.7674e-15
6.76721e-15
6.76702e-15
6.76683e-15
6.76664e-15
6.76769e-15
6.76769e-15
6.76768e-15
6.76767e-15
6.76766e-15
6.76764e-15
6.76762e-15
6.76759e-15
6.76755e-15
6.7675e-15
6.76745e-15
6.76738e-15
6.76731e-15
6.76723e-15
6.76714e-15
6.76704e-15
6.76693e-15
6.76682e-15
6.76671e-15
6.7666e-15
6.7672e-15
6.7672e-15
6.7672e-15
6.76719e-15
6.76718e-15
6.76717e-15
6.76716e-15
6.76714e-15
6.76712e-15
6.76709e-15
6.76706e-15
6.76703e-15
6.76698e-15
6.76693e-15
6.76688e-15
6.76683e-15
6.76676e-15
6.7667e-15
6.76664e-15
6.76658e-15
6.76692e-15
6.76692e-15
6.76692e-15
6.76691e-15
6.76691e-15
6.7669e-15
6.76689e-15
6.76688e-15
6.76687e-15
6.76686e-15
6.76684e-15
6.76682e-15
6.76679e-15
6.76677e-15
6.76674e-15
6.7667e-15
6.76667e-15
6.76663e-15
6.7666e-15
6.76656e-15
6.76676e-15
6.76675e-15
6.76675e-15
6.76675e-15
6.76675e-15
6.76675e-15
6.76674e-15
6.76673e-15
6.76673e-15
6.76672e-15
6.76671e-15
6.7667e-15
6.76668e-15
6.76667e-15
6.76665e-15
6.76663e-15
6.76661e-15
6.76659e-15
6.76657e-15
6.76656e-15
6.76666e-15
6.76666e-15
6.76666e-15
6.76666e-15
6.76666e-15
6.76666e-15
6.76665e-15
6.76665e-15
6.76665e-15
6.76664e-15
6.76664e-15
6.76663e-15
6.76662e-15
6.76661e-15
6.7666e-15
6.76659e-15
6.76658e-15
6.76657e-15
6.76656e-15
6.76655e-15
6.76661e-15
6.76661e-15
6.76661e-15
6.76661e-15
6.76661e-15
6.76661e-15
6.76661e-15
6.7666e-15
6.7666e-15
6.7666e-15
6.7666e-15
6.76659e-15
6.76659e-15
6.76658e-15
6.76658e-15
6.76657e-15
6.76657e-15
6.76656e-15
6.76655e-15
6.76655e-15
6.76658e-15
6.76658e-15
6.76658e-15
6.76658e-15
6.76658e-15
6.76658e-15
6.76658e-15
6.76658e-15
6.76658e-15
6.76657e-15
6.76657e-15
6.76657e-15
6.76657e-15
6.76657e-15
6.76656e-15
6.76656e-15
6.76656e-15
6.76655e-15
6.76655e-15
6.76655e-15
6.76656e-15
6.76656e-15
6.76656e-15
6.76656e-15
6.76656e-15
6.76656e-15
6.76656e-15
6.76656e-15
6.76656e-15
6.76656e-15
6.76656e-15
6.76656e-15
6.76656e-15
6.76656e-15
6.76656e-15
6.76655e-15
6.76655e-15
6.76655e-15
6.76655e-15
6.76655e-15
6.76656e-15
6.76656e-15
6.76656e-15
6.76656e-15
6.76656e-15
6.76656e-15
6.76656e-15
6.76655e-15
6.76655e-15
6.76655e-15
6.76655e-15
6.76655e-15
6.76655e-15
6.76655e-15
6.76655e-15
6.76655e-15
6.76655e-15
6.76655e-15
6.76655e-15
6.76655e-15
6.76655e-15
6.76655e-15
6.76655e-15
6.76655e-15
6.76655e-15
6.76655e-15
6.76655e-15
6.76655e-15
6.76655e-15
6.76655e-15
6.76655e-15
6.76655e-15
6.76655e-15
6.76655e-15
6.76655e-15
6.76655e-15
6.76655e-15
6.76655e-15
6.76655e-15
6.76655e-15
6.76655e-15
6.76655e-15
6.76655e-15
6.76655e-15
6.76655e-15
6.76655e-15
6.76655e-15
6.76655e-15
6.76655e-15
6.76655e-15
6.76655e-15
6.76655e-15
6.76655e-15
6.76655e-15
6.76655e-15
6.76655e-15
6.76655e-15
6.76655e-15
6.76655e-15
6.76655e-15
6.76655e-15
6.76655e-15
6.76655e-15
6.76655e-15
6.76655e-15
6.76655e-15
6.76655e-15
6.76655e-15
6.76655e-15
6.76655e-15
6.76655e-15
6.76655e-15
6.76655e-15
6.76655e-15
6.76655e-15
6.76655e-15
6.76655e-15
6.76655e-15
6.76655e-15
6.76655e-15
6.76655e-15
6.76655e-15
6.76655e-15
6.76655e-15
6.76655e-15
6.76655e-15
6.76655e-15
6.76655e-15
6.76655e-15
6.76655e-15
6.76655e-15
6.76655e-15
6.76655e-15
6.76655e-15
6.76655e-15
6.76655e-15
6.76655e-15
6.76655e-15
6.76655e-15
6.76655e-15
6.76655e-15
6.76655e-15
6.76655e-15
6.76655e-15
6.76655e-15
6.76655e-15
6.76655e-15
6.76655e-15
6.76655e-15
6.76655e-15
6.76655e-15
6.76655e-15
6.76655e-15
6.76655e-15
6.76655e-15
6.76655e-15
6.76655e-15
6.76655e-15
6.76655e-15
6.76655e-15
6.76655e-15
6.76655e-15
6.76655e-15
6.76655e-15
6.76655e-15
6.76655e-15
6.76655e-15
6.76655e-15
6.76655e-15
6.76655e-15
6.76655e-15
6.76655e-15
6.76655e-15
6.76655e-15
6.76655e-15
6.76655e-15
6.76655e-15
6.76655e-15
6.76655e-15
6.76655e-15
6.76655e-15
6.76655e-15
6.76655e-15
6.76655e-15
6.76655e-15
6.76655e-15
6.76655e-15
6.76655e-15
6.76655e-15
6.76655e-15
6.76655e-15
6.76655e-15
6.76655e-15
6.76655e-15
6.76655e-15
6.76655e-15
6.76655e-15
6.76655e-15
6.76655e-15
6.76655e-15
6.76655e-15
6.76655e-15
6.76655e-15
6.76655e-15
6.76655e-15
6.76655e-15
6.76655e-15
6.76655e-15
6.76655e-15
6.76655e-15
6.76655e-15
6.76655e-15
6.76655e-15
6.76655e-15
6.76655e-15
6.76655e-15
6.76655e-15
6.76655e-15
6.76655e-15
6.76655e-15
)
;

boundaryField
{
    topWall
    {
        type            zeroGradient;
    }
    bottomWall
    {
        type            zeroGradient;
    }
    sideWallL
    {
        type            symmetry;
    }
    sideWallR
    {
        type            calculated;
        value           uniform 0;
    }
    frontAndBack
    {
        type            empty;
    }
}


// ************************************************************************* //
