/*--------------------------------*- C++ -*----------------------------------*\
  =========                 |
  \\      /  F ield         | OpenFOAM: The Open Source CFD Toolbox
   \\    /   O peration     | Website:  https://openfoam.org
    \\  /    A nd           | Version:  7
     \\/     M anipulation  |
\*---------------------------------------------------------------------------*/
FoamFile
{
    version     2.0;
    format      ascii;
    class       volScalarField;
    location    "13";
    object      T;
}
// * * * * * * * * * * * * * * * * * * * * * * * * * * * * * * * * * * * * * //

dimensions      [0 0 0 1 0 0 0];

internalField   nonuniform List<scalar> 
900
(
389.602
389.601
389.596
389.589
389.579
389.563
389.538
389.503
389.45
389.372
389.256
389.08
388.811
388.389
387.705
386.535
384.365
379.8
368.384
333.781
367.152
367.147
367.135
367.115
367.084
367.038
366.969
366.868
366.718
366.498
366.171
365.681
364.939
363.794
361.989
359.048
354.063
345.2
328.757
298.075
348.457
348.449
348.43
348.399
348.351
348.279
348.173
348.017
347.79
347.456
346.965
346.239
345.16
343.537
341.069
337.263
331.312
321.946
307.383
286.058
332.997
332.986
332.962
332.923
332.862
332.77
332.637
332.442
332.159
331.749
331.154
330.289
329.03
327.193
324.505
320.572
314.843
306.631
295.298
280.854
320.308
320.295
320.268
320.223
320.153
320.05
319.899
319.682
319.369
318.922
318.282
317.37
316.073
314.235
311.644
308.028
303.062
296.434
288.004
278.109
309.978
309.964
309.935
309.887
309.814
309.705
309.549
309.324
309.005
308.554
307.92
307.033
305.801
304.104
301.792
298.694
294.638
289.508
283.345
276.465
301.641
301.628
301.598
301.55
301.477
301.37
301.216
300.998
300.691
300.264
299.672
298.86
297.756
296.275
294.317
291.782
288.59
284.714
280.24
275.404
294.976
294.962
294.934
294.888
294.819
294.717
294.573
294.371
294.09
293.704
293.177
292.467
291.521
290.282
288.686
286.679
284.228
281.344
278.109
274.687
289.697
289.685
289.659
289.617
289.553
289.462
289.332
289.152
288.905
288.569
288.117
287.519
286.737
285.733
284.47
282.919
281.071
278.95
276.619
274.191
285.56
285.549
285.526
285.489
285.433
285.352
285.24
285.085
284.874
284.591
284.217
283.728
283.101
282.309
281.331
280.156
278.783
277.237
275.565
273.842
282.352
282.342
282.322
282.29
282.242
282.174
282.079
281.949
281.775
281.544
281.242
280.853
280.361
279.75
279.009
278.132
277.125
276.008
274.814
273.594
279.89
279.882
279.865
279.838
279.798
279.742
279.664
279.559
279.418
279.234
278.997
278.694
278.317
277.855
277.302
276.657
275.927
275.126
274.279
273.418
278.022
278.015
278.002
277.98
277.947
277.902
277.839
277.756
277.646
277.502
277.319
277.089
276.805
276.461
276.055
275.587
275.063
274.494
273.897
273.293
276.621
276.616
276.605
276.587
276.561
276.526
276.477
276.412
276.327
276.218
276.079
275.907
275.697
275.445
275.151
274.816
274.444
274.043
273.625
273.204
275.582
275.578
275.569
275.556
275.536
275.508
275.471
275.422
275.357
275.276
275.173
275.047
274.893
274.712
274.502
274.264
274.002
273.723
273.432
273.141
274.821
274.818
274.811
274.801
274.786
274.765
274.737
274.7
274.652
274.592
274.517
274.426
274.316
274.187
274.039
273.872
273.69
273.497
273.297
273.097
274.269
274.267
274.262
274.254
274.243
274.228
274.207
274.18
274.146
274.102
274.048
273.983
273.906
273.815
273.712
273.596
273.471
273.339
273.202
273.066
273.875
273.873
273.87
273.864
273.856
273.845
273.83
273.81
273.786
273.755
273.717
273.671
273.617
273.554
273.483
273.404
273.319
273.229
273.136
273.044
273.596
273.595
273.592
273.588
273.582
273.574
273.564
273.55
273.533
273.511
273.485
273.453
273.416
273.373
273.324
273.271
273.213
273.153
273.091
273.03
273.402
273.401
273.399
273.396
273.392
273.386
273.379
273.369
273.357
273.342
273.324
273.303
273.277
273.248
273.216
273.18
273.142
273.101
273.06
273.02
273.267
273.267
273.266
273.264
273.261
273.257
273.252
273.245
273.237
273.227
273.214
273.2
273.183
273.164
273.142
273.118
273.093
273.067
273.04
273.013
273.176
273.176
273.175
273.173
273.171
273.169
273.165
273.161
273.155
273.148
273.14
273.131
273.119
273.107
273.092
273.077
273.06
273.043
273.026
273.008
273.115
273.114
273.114
273.113
273.111
273.11
273.107
273.104
273.101
273.096
273.091
273.084
273.077
273.069
273.059
273.049
273.039
273.028
273.016
273.005
273.074
273.073
273.073
273.072
273.072
273.07
273.069
273.067
273.064
273.061
273.058
273.054
273.049
273.044
273.038
273.031
273.025
273.018
273.01
273.003
273.047
273.047
273.046
273.046
273.045
273.045
273.044
273.042
273.041
273.039
273.037
273.034
273.031
273.028
273.024
273.02
273.016
273.011
273.007
273.002
273.029
273.029
273.029
273.029
273.028
273.028
273.027
273.027
273.026
273.024
273.023
273.021
273.019
273.017
273.015
273.012
273.01
273.007
273.004
273.001
273.018
273.018
273.018
273.018
273.018
273.017
273.017
273.016
273.016
273.015
273.014
273.013
273.012
273.011
273.009
273.008
273.006
273.004
273.003
273.001
273.011
273.011
273.011
273.011
273.011
273.011
273.01
273.01
273.01
273.009
273.009
273.008
273.007
273.006
273.006
273.005
273.004
273.003
273.002
273
273.007
273.007
273.007
273.007
273.007
273.006
273.006
273.006
273.006
273.006
273.005
273.005
273.004
273.004
273.003
273.003
273.002
273.002
273.001
273
273.004
273.004
273.004
273.004
273.004
273.004
273.004
273.004
273.003
273.003
273.003
273.003
273.003
273.002
273.002
273.002
273.001
273.001
273.001
273
273.002
273.002
273.002
273.002
273.002
273.002
273.002
273.002
273.002
273.002
273.002
273.002
273.002
273.001
273.001
273.001
273.001
273.001
273
273
273.001
273.001
273.001
273.001
273.001
273.001
273.001
273.001
273.001
273.001
273.001
273.001
273.001
273.001
273.001
273.001
273
273
273
273
273.001
273.001
273.001
273.001
273.001
273.001
273.001
273.001
273.001
273.001
273.001
273.001
273.001
273
273
273
273
273
273
273
273
273
273
273
273
273
273
273
273
273
273
273
273
273
273
273
273
273
273
273
273
273
273
273
273
273
273
273
273
273
273
273
273
273
273
273
273
273
273
273
273
273
273
273
273
273
273
273
273
273
273
273
273
273
273
273
273
273
273
273
273
273
273
273
273
273
273
273
273
273
273
273
273
273
273
273
273
273
273
273
273
273
273
273
273
273
273
273
273
273
273
273
273
273
273
273
273
273
273
273
273
273
273
273
273
273
273
273
273
273
273
273
273
273
273
273
273
273
273
273
273
273
273
273
273
273
273
273
273
273
273
273
273
273
273
273
273
273
273
273
273
273
273
273
273
273
273
273
273
273
273
273
273
273
273
273
273
273
273
273
273
273
273
273
273
273
273
273
273
273
273
273
273
273
273
273
273
273
273
273
273
273
273
273
273
273
273
273
273
273
273
273
273
273
273
273
273
273
273
273
273
273
273
273
273
273
273
273
273
273
273
273
273
273
273
273
273
273
273
273
273
273
273
273
273
273
273
273
273
273
273
273
273
273
273
273
273
273
273
273
)
;

boundaryField
{
    topWall
    {
        type            zeroGradient;
    }
    bottomWall
    {
        type            codedFixedValue;
        value           uniform 403;
        name            heating;
        code            #{
            const scalar t = this->db().time().value();
            const scalar Ttemp = 273 + 10*t;
            operator==(Ttemp);
        #};
    }
    sideWallL
    {
        type            symmetry;
    }
    sideWallR
    {
        type            fixedValue;
        value           uniform 273;
    }
    frontAndBack
    {
        type            empty;
    }
}


// ************************************************************************* //
