/*--------------------------------*- C++ -*----------------------------------*\
  =========                 |
  \\      /  F ield         | OpenFOAM: The Open Source CFD Toolbox
   \\    /   O peration     | Website:  https://openfoam.org
    \\  /    A nd           | Version:  7
     \\/     M anipulation  |
\*---------------------------------------------------------------------------*/
FoamFile
{
    version     2.0;
    format      ascii;
    class       volScalarField;
    location    "22";
    object      gradTy;
}
// * * * * * * * * * * * * * * * * * * * * * * * * * * * * * * * * * * * * * //

dimensions      [0 -1 0 1 0 0 0];

internalField   nonuniform List<scalar> 
900
(
-168624
-168716
-168908
-169217
-169667
-170298
-171166
-172352
-173970
-176190
-179257
-183549
-189657
-198550
-211903
-232827
-267599
-330246
-455770
-740764
-145898
-145983
-146158
-146438
-146845
-147414
-148192
-149248
-150676
-152611
-155244
-158852
-163840
-170798
-180589
-194377
-213339
-236688
-252286
-196420
-125878
-125950
-126099
-126337
-126681
-127156
-127799
-128658
-129798
-131305
-133291
-135896
-139284
-143611
-148920
-154828
-159682
-158414
-137849
-70384.5
-108234
-108291
-108408
-108594
-108859
-109221
-109700
-110323
-111124
-112137
-113395
-114914
-116661
-118482
-119954
-120083
-116735
-105758
-80255.3
-32651
-92696.3
-92736.6
-92819.2
-92947.8
-93128.2
-93367.5
-93673.5
-94053.1
-94509.5
-95035.6
-95603.4
-96142.4
-96501.6
-96382.6
-95224.9
-92031.2
-85145.2
-72126.5
-50194.6
-18293.7
-79040.3
-79063.9
-79111.4
-79183.5
-79280.4
-79401
-79541.9
-79693.9
-79838.1
-79938.6
-79929.4
-79695.5
-79041.4
-77644.4
-74992.7
-70318
-62567.4
-50530.8
-33337.8
-11543.1
-67072.5
-67080.5
-67095.5
-67115.5
-67136.4
-67151.1
-67147.6
-67105.8
-66993.3
-66757.9
-66317.6
-65545.2
-64248.3
-62144.6
-58837.8
-53811
-46470.2
-36296.5
-23167.4
-7824.67
-56623
-56617.5
-56604.5
-56580
-56536.9
-56464.1
-56344.4
-56151.6
-55847.1
-55373.3
-54647.1
-53549.6
-51915.8
-49525.2
-46099.8
-41321.3
-34885.6
-26615.4
-16634.1
-5544.76
-47540.1
-47523.5
-47488
-47428.2
-47335.4
-47196.2
-46991.1
-46691.9
-46259
-45637.1
-44750.6
-43499
-41752.1
-39350.1
-36110.6
-31851.1
-26432.9
-19831.9
-12223.3
-4043.48
-39685.1
-39660.5
-39608.4
-39523.1
-39395.1
-39210.6
-38949.7
-38585.1
-38079.8
-37384.9
-36436.7
-35155.1
-33443.6
-31192.3
-28288
-24633.1
-20176.9
-14955.1
-9129.94
-3005.62
-32930.5
-32900.4
-32837.5
-32736
-32586.5
-32375.7
-32084.9
-31689.6
-31157.2
-30446.8
-29507.5
-28278.6
-26691.4
-24673.4
-22158
-19098.1
-15485.9
-11375
-6897.24
-2263.18
-27157.3
-27124.4
-27055.8
-26946.2
-26786.9
-26565.7
-26266.3
-25867.2
-25341.5
-24656.3
-23772.3
-22645.3
-21227.9
-19474.5
-17347.8
-14829
-11929.6
-8703.02
-5250.71
-1718.89
-22254.8
-22221
-22151
-22040
-21880.3
-21661.3
-21369.1
-20985.9
-20490.1
-19856
-19054.4
-18054
-16823.2
-15334.2
-13567.7
-11520.2
-9209.94
-6683.42
-4016.97
-1312.74
-18119.7
-18086.6
-18018.6
-17911.2
-17758.1
-17550.3
-17276.3
-16921.9
-16470.2
-15901.8
-15195.5
-14329.5
-13283.5
-12041.2
-10594.2
-8946.13
-7116.23
-5142.55
-3081.76
-1005.77
-14655.9
-14624.9
-14561.1
-14460.9
-14319.1
-14128.4
-13879.5
-13561.4
-13161.2
-12664.4
-12056
-11321.4
-10447.8
-9426.24
-8254.36
-6938.68
-5496.9
-3959.05
-2367
-771.69
-11775.3
-11747
-11688.9
-11598.2
-11470.6
-11300.3
-11080.1
-10801.4
-10454.7
-10029.5
-9515.44
-8902.69
-8183.54
-7353.66
-6413.75
-5371.09
-4240.76
-3046.03
-1817.71
-592.106
-9397.01
-9371.81
-9320.28
-9240.14
-9128.01
-8979.38
-8788.75
-8549.69
-8255.14
-7897.71
-7470.24
-6966.45
-6381.88
-5714.84
-4967.49
-4146.74
-3264.94
-2339.86
-1394.15
-453.819
-7447.87
-7425.95
-7381.22
-7311.92
-7215.41
-7088.28
-6926.37
-6724.95
-6478.9
-6183.06
-5832.62
-5423.66
-4953.76
-4422.71
-3833.18
-3191.25
-2506.75
-1793.14
-1067.03
-347.132
-5862.35
-5843.65
-5805.56
-5746.75
-5665.21
-5558.37
-5423.16
-5256.12
-5053.64
-4812.16
-4528.5
-4200.29
-3826.39
-3407.33
-2945.78
-2446.84
-1918.19
-1369.97
-814.34
-264.796
-4582.29
-4566.62
-4534.75
-4485.67
-4417.9
-4329.52
-4218.31
-4081.77
-3917.39
-3722.73
-3495.77
-3235.13
-2940.4
-2612.46
-2253.71
-1868.31
-1462.17
-1042.88
-619.348
-201.306
-3556.67
-3543.74
-3517.48
-3477.15
-3421.66
-3349.61
-3259.38
-3149.24
-3017.43
-2862.34
-2682.68
-2477.72
-2247.46
-1992.85
-1715.97
-1420.11
-1109.79
-790.639
-469.178
-152.441
-2741.15
-2730.64
-2709.32
-2676.64
-2631.82
-2573.86
-2501.6
-2413.82
-2309.34
-2187.09
-2046.31
-1886.63
-1708.25
-1512.1
-1299.89
-1074.18
-838.392
-596.701
-353.854
-114.935
-2097.65
-2089.21
-2072.13
-2046
-2010.27
-1964.21
-1907.02
-1837.86
-1755.94
-1660.56
-1551.29
-1427.98
-1290.94
-1140.96
-979.427
-808.319
-630.2
-448.142
-265.601
-86.2457
-1593.78
-1587.09
-1573.57
-1552.94
-1524.78
-1488.61
-1443.85
-1389.95
-1326.37
-1252.68
-1168.64
-1074.24
-969.787
-855.961
-733.85
-604.961
-471.203
-334.827
-198.341
-64.3895
-1202.26
-1197.03
-1186.45
-1170.34
-1148.41
-1120.31
-1085.66
-1044.08
-995.219
-938.817
-874.752
-803.081
-724.092
-638.339
-546.664
-450.203
-350.367
-248.8
-147.316
-47.8145
-900.396
-896.345
-888.169
-875.729
-858.83
-837.233
-810.679
-778.914
-741.716
-698.934
-650.516
-596.546
-537.274
-473.141
-404.791
-333.071
-259.018
-183.826
-108.802
-35.3071
-669.45
-666.347
-660.092
-650.588
-637.701
-621.268
-601.118
-577.082
-549.024
-516.857
-480.571
-440.255
-396.118
-348.503
-297.896
-244.924
-190.344
-135.019
-79.8864
-25.9195
-494.128
-491.777
-487.041
-479.853
-470.123
-457.741
-442.595
-424.575
-403.599
-379.62
-352.65
-322.773
-290.155
-255.06
-217.851
-178.988
-139.02
-98.5681
-58.3017
-18.9134
-362.066
-360.302
-356.75
-351.367
-344.092
-334.851
-323.57
-310.182
-294.636
-276.912
-257.029
-235.06
-211.136
-185.457
-158.291
-129.973
-100.897
-71.5092
-42.2851
-13.7157
-263.36
-262.049
-259.412
-255.419
-250.03
-243.196
-234.871
-225.01
-213.587
-200.594
-186.054
-170.025
-152.61
-133.957
-114.263
-93.7689
-72.7585
-51.5477
-30.4739
-9.88342
-190.159
-189.194
-187.254
-184.32
-180.364
-175.356
-169.265
-162.066
-153.743
-144.296
-133.746
-122.142
-109.56
-96.1094
-81.9329
-67.2039
-52.1241
-36.9167
-21.8196
-7.07586
-136.294
-135.591
-134.177
-132.04
-129.162
-125.525
-121.107
-115.895
-109.881
-103.067
-95.474
-87.1373
-78.1149
-68.4865
-58.3546
-47.8427
-37.0933
-26.2636
-15.52
-5.03248
-96.9669
-96.4586
-95.4373
-93.8949
-91.82
-89.2003
-86.0239
-82.282
-77.9715
-73.0971
-67.6741
-61.7307
-55.3092
-48.4673
-41.2778
-33.8283
-26.2188
-18.5591
-10.9652
-3.55526
-68.4768
-68.1127
-67.3815
-66.2779
-64.7947
-62.9243
-60.6594
-57.9952
-54.9309
-51.4713
-47.6286
-43.4238
-38.8877
-34.0614
-28.9967
-23.7548
-18.4056
-13.0254
-7.69454
-2.4946
-47.9978
-47.7393
-47.2203
-46.4375
-45.3864
-44.0621
-42.4606
-40.5793
-38.4185
-35.9825
-33.2808
-30.3287
-27.1484
-23.7691
-20.227
-16.565
-12.8312
-9.07851
-5.3622
-1.73833
-33.3911
-33.2091
-32.8439
-32.2933
-31.5547
-30.6251
-29.5021
-28.1844
-26.673
-24.9713
-23.0866
-21.0299
-18.817
-16.4685
-14.0095
-11.4696
-8.88208
-6.28314
-3.71063
-1.20284
-23.0523
-22.9253
-22.6705
-22.2867
-21.7721
-21.1249
-20.344
-19.4287
-18.3801
-17.2009
-15.8965
-14.4748
-12.9469
-11.327
-9.63265
-7.88406
-6.10404
-4.3172
-2.5493
-0.826336
-15.7887
-15.7008
-15.5247
-15.2594
-14.904
-14.4574
-13.919
-13.2886
-12.5671
-11.7568
-10.8614
-9.88648
-8.83989
-7.73142
-6.573
-5.37846
-4.16326
-2.94407
-1.73828
-0.563422
-10.7208
-10.6607
-10.54
-10.3584
-10.1152
-9.80991
-9.4421
-9.01188
-8.51999
-7.96806
-7.35879
-6.69614
-5.98543
-5.23337
-4.44807
-3.63886
-2.81616
-1.99117
-1.17554
-0.381005
-7.20531
-7.16453
-7.0828
-6.95984
-6.79528
-6.58881
-6.34027
-6.0498
-5.71799
-5.34601
-4.93578
-4.49001
-4.01233
-3.50727
-2.98026
-2.43758
-1.88615
-1.33343
-0.787152
-0.255114
-4.77406
-4.74685
-4.69232
-4.61031
-4.50061
-4.36305
-4.19758
-4.00433
-3.78376
-3.5367
-3.26445
-2.96885
-2.65233
-2.31792
-1.96921
-1.61033
-1.24585
-0.880659
-0.519832
-0.16847
-3.08764
-3.06993
-3.03446
-2.98111
-2.90979
-2.8204
-2.71293
-2.58751
-2.44445
-2.28433
-2.108
-1.91669
-1.71198
-1.49582
-1.27056
-1.03884
-0.8036
-0.567987
-0.335246
-0.108645
-1.89883
-1.88788
-1.86596
-1.833
-1.78895
-1.73377
-1.66746
-1.59011
-1.50193
-1.40329
-1.29473
-1.17701
-1.05111
-0.918249
-0.779847
-0.637538
-0.49312
-0.34851
-0.205692
-0.0666578
-1.02445
-1.01852
-1.00665
-0.988812
-0.964974
-0.935119
-0.899256
-0.85744
-0.80979
-0.756506
-0.69789
-0.634354
-0.566431
-0.494774
-0.420155
-0.343452
-0.265631
-0.187722
-0.11079
-0.0359027
-0.323099
-0.321226
-0.317476
-0.31184
-0.30431
-0.29488
-0.283555
-0.270353
-0.255312
-0.238496
-0.220002
-0.199959
-0.178537
-0.155941
-0.132415
-0.108237
-0.0837085
-0.0591552
-0.0349116
-0.0113134
)
;

boundaryField
{
    topWall
    {
        type            calculated;
        value           uniform 0;
    }
    bottomWall
    {
        type            calculated;
        value           nonuniform List<scalar> 
20
(
-180708
-180803
-181002
-181320
-181785
-182439
-183338
-184569
-186254
-188571
-191786
-196309
-202798
-212358
-226999
-250740
-292757
-377634
-582962
-1.18687e+06
)
;
    }
    sideWallL
    {
        type            symmetry;
    }
    sideWallR
    {
        type            calculated;
        value           nonuniform List<scalar> 
45
(
-740764
-196420
-70384.5
-32651
-18293.7
-11543.1
-7824.67
-5544.76
-4043.48
-3005.62
-2263.18
-1718.89
-1312.74
-1005.77
-771.69
-592.106
-453.819
-347.132
-264.796
-201.306
-152.441
-114.935
-86.2457
-64.3895
-47.8145
-35.3071
-25.9195
-18.9134
-13.7157
-9.88342
-7.07586
-5.03248
-3.55526
-2.4946
-1.73833
-1.20284
-0.826336
-0.563422
-0.381005
-0.255114
-0.16847
-0.108645
-0.0666578
-0.0359027
-0.0113134
)
;
    }
    frontAndBack
    {
        type            empty;
    }
}


// ************************************************************************* //
