/*--------------------------------*- C++ -*----------------------------------*\
  =========                 |
  \\      /  F ield         | OpenFOAM: The Open Source CFD Toolbox
   \\    /   O peration     | Website:  https://openfoam.org
    \\  /    A nd           | Version:  7
     \\/     M anipulation  |
\*---------------------------------------------------------------------------*/
FoamFile
{
    version     2.0;
    format      ascii;
    class       volScalarField;
    location    "22";
    object      gradTx;
}
// * * * * * * * * * * * * * * * * * * * * * * * * * * * * * * * * * * * * * //

dimensions      [0 -1 0 1 0 0 0];

internalField   nonuniform List<scalar> 
900
(
-23.816
-73.4299
-129.194
-195.92
-279.614
-388.218
-532.725
-728.923
-1000.27
-1382.9
-1934.68
-2753.05
-4012.3
-6050.39
-9595.35
-16439.4
-31723.4
-72551.2
-202309
-657543
-68.4905
-211.107
-371.195
-562.382
-801.575
-1111
-1521.17
-2075.47
-2837.55
-3903.78
-5425.11
-7647.22
-10988.1
-16195.7
-24682.2
-39256.5
-65694.9
-115619
-208210
-345923
-107.965
-332.59
-584.133
-883.44
-1256.14
-1735.53
-2366.64
-3212.35
-4362.86
-5950.85
-8176.36
-11348.8
-15958.4
-22799.5
-33173.6
-49189.3
-74035.2
-111499
-162040
-208836
-140.462
-432.349
-758.11
-1143.73
-1620.74
-2229.4
-3023.08
-4074.44
-5484.58
-7396.6
-10015.9
-13640.3
-18703.7
-25832.1
-35899.1
-50017.9
-69280.6
-93786.1
-120181
-137690
-164.859
-506.939
-887.115
-1334.27
-1882.87
-2576.03
-3469.46
-4636.72
-6176.42
-8221.88
-10953.7
-14614.9
-19526.5
-26092.7
-34773.8
-45969.5
-59710.6
-75019.4
-88933.4
-95930.1
-180.762
-555.199
-969.325
-1452.82
-2040.45
-2774.66
-3708.69
-4910.43
-6467.09
-8490.52
-11122.6
-14538.5
-18943.9
-24555.4
-31547.7
-39938.2
-49375.9
-58835.5
-66347.8
-69201.8
-188.451
-578.09
-1006.75
-1503.18
-2100.38
-2837.55
-3762.3
-4932.99
-6421.12
-8313.13
-10710.7
-13726.9
-17475.3
-22044.1
-27447.4
-33544.1
-39923.4
-45789.9
-49945.7
-51049.2
-188.758
-578.267
-1004.4
-1493.71
-2076.04
-2785.81
-3663.38
-4756.15
-6119.2
-7814.81
-9909.86
-12469.3
-15543.3
-19144.9
-23214.1
-27570.6
-31861.4
-35532.6
-37876
-38209.8
-182.887
-559.526
-969.226
-1435.59
-1984.52
-2645.02
-3449.85
-4435.7
-5642.78
-7113.13
-8886.91
-10995.6
-13451
-16228.1
-19243.5
-22329.8
-25217.5
-27538.4
-28875.1
-28870.3
-172.235
-526.225
-909.09
-1341.11
-1844.05
-2441.5
-3159.07
-4024.03
-5064.32
-6306.45
-7771.78
-9470.76
-11394.4
-13503.4
-15715.1
-17892.9
-19842.2
-21323
-22087.6
-21943
-158.226
-482.781
-831.841
-1222.34
-1672.04
-2199.57
-2824.32
-3565.83
-4442.59
-5469.98
-6657.18
-8002.6
-9488.16
-11072.4
-12684.3
-14218.7
-15539.5
-16491.4
-16925.6
-16734.8
-142.187
-433.287
-744.661
-1090.11
-1483.74
-1939.93
-2472.94
-3096.29
-3821.58
-4656.74
-5603.58
-6654.62
-7789.27
-8970.08
-10139.8
-11220.8
-12119.1
-12734.4
-12975.8
-12782.6
-125.267
-381.26
-653.653
-953.438
-1291.61
-1678.98
-2125.78
-2641.06
-3231.64
-3900.73
-4646.18
-5458.26
-6317.43
-7192.31
-8038.72
-8800.57
-9413.58
-9812.53
-9941.47
-9765.18
-108.394
-329.521
-563.649
-819.365
-1105.06
-1428.72
-1797.51
-2217.27
-2691.65
-3221.1
-3801.64
-4423.4
-5069.41
-5714.59
-6325.79
-6862.98
-7282.36
-7541.39
-7605.12
-7452.88
-92.2603
-280.168
-478.196
-692.932
-930.675
-1197.2
-1497.44
-1834.99
-2211.52
-2626
-3073.89
-3546.27
-4029.13
-4503.07
-4943.65
-5322.56
-5610
-5778.06
-5804.7
-5677.64
-77.3428
-234.628
-399.661
-577.416
-772.543
-989.16
-1230.57
-1498.88
-1794.58
-2115.99
-2458.71
-2815.15
-3174.2
-3521.16
-3838.23
-4105.51
-4302.73
-4411.49
-4417.75
-4314.19
-63.9272
-193.747
-329.407
-474.608
-632.736
-806.677
-998.592
-1209.64
-1439.64
-1686.74
-1947.04
-2214.37
-2480.1
-2733.28
-2961.08
-3149.57
-3284.94
-3355
-3350.77
-3267.83
-52.1444
-157.898
-267.992
-385.144
-511.782
-649.9
-800.88
-965.278
-1142.6
-1331.08
-1527.45
-1726.8
-1922.59
-2106.77
-2270.13
-2402.96
-2495.85
-2540.7
-2531.71
-2466.22
-42.0074
-127.099
-215.375
-308.803
-409.105
-517.636
-635.254
-762.16
-897.751
-1040.46
-1187.64
-1335.51
-1479.15
-1612.71
-1729.62
-1823.13
-1886.82
-1915.29
-1904.77
-1853.67
-33.4448
-101.116
-171.095
-244.79
-323.404
-407.847
-498.632
-595.763
-698.636
-805.937
-915.581
-1024.69
-1129.63
-1226.16
-1309.64
-1375.37
-1418.98
-1436.85
-1426.54
-1387.09
-26.331
-79.5541
-134.43
-191.953
-252.958
-318.044
-387.503
-461.241
-538.71
-618.848
-700.044
-780.139
-856.478
-926.012
-985.471
-1031.59
-1061.4
-1072.46
-1063.19
-1033.02
-20.5094
-61.9266
-104.514
-148.968
-195.858
-245.573
-298.268
-353.808
-411.727
-471.188
-530.967
-589.466
-644.758
-694.667
-736.898
-769.192
-789.516
-796.244
-788.338
-765.467
-15.8116
-47.7144
-80.4369
-114.461
-150.172
-187.817
-227.467
-268.984
-311.983
-355.819
-399.576
-442.084
-481.954
-517.644
-547.546
-570.101
-583.923
-587.923
-581.422
-564.229
-12.0695
-36.4029
-61.3046
-87.1048
-114.06
-142.325
-171.923
-202.726
-234.429
-266.541
-298.387
-329.115
-357.734
-383.155
-404.257
-419.966
-429.339
-431.646
-426.442
-413.62
-9.12508
-27.5089
-46.2829
-65.6706
-85.8413
-106.889
-128.812
-151.499
-174.714
-198.09
-221.133
-243.23
-263.676
-281.707
-296.546
-307.453
-313.788
-315.062
-310.985
-301.498
-6.83493
-20.5959
-34.622
-49.0631
-64.0294
-79.5763
-95.6906
-112.28
-129.165
-146.075
-162.65
-178.456
-192.992
-205.727
-216.121
-223.669
-227.936
-228.595
-225.456
-218.489
-5.07325
-15.2812
-25.6676
-36.3319
-47.3448
-58.7376
-70.4929
-82.537
-94.7352
-106.89
-118.744
-129.988
-140.271
-149.224
-156.476
-161.68
-164.543
-164.846
-162.466
-157.389
-3.73235
-11.2381
-18.8628
-26.6717
-34.7096
-42.9931
-51.5045
-60.1866
-68.9398
-77.6215
-86.0485
-94.0027
-101.24
-107.505
-112.542
-116.117
-118.03
-118.137
-116.356
-112.683
-2.72207
-8.19338
-13.7432
-19.4139
-25.2334
-31.2097
-37.3267
-43.5411
-49.7801
-55.9416
-61.8963
-67.4917
-72.5587
-76.9208
-80.4042
-82.8494
-84.1229
-84.1276
-82.8116
-80.1741
-1.96836
-5.9229
-9.92875
-14.0131
-18.1931
-22.4718
-26.8357
-31.2524
-35.6694
-40.0144
-44.1965
-48.1098
-51.638
-54.6599
-57.0575
-58.723
-59.5668
-59.5246
-58.5629
-56.6826
-1.41142
-4.24584
-7.11347
-10.0316
-13.0104
-16.0504
-19.1409
-22.2579
-25.3639
-28.408
-31.3271
-34.048
-36.491
-38.5736
-40.2158
-41.3451
-41.9017
-41.843
-41.1474
-39.8167
-1.00371
-3.01857
-5.05471
-7.12296
-9.22925
-11.373
-13.5456
-15.7298
-17.8991
-20.018
-22.0428
-23.9234
-25.6054
-27.0329
-28.1521
-28.9142
-29.2796
-29.2201
-28.722
-27.7871
-0.707952
-2.12859
-3.56272
-5.01705
-6.49491
-7.99522
-9.51149
-11.0313
-12.5361
-14.0013
-15.397
-16.6889
-17.8402
-18.8133
-19.572
-20.0839
-20.3226
-20.2696
-19.9163
-19.2642
-0.495319
-1.48894
-2.49102
-3.50566
-4.53466
-5.57682
-6.62735
-7.67744
-8.71417
-9.72066
-10.6765
-11.5585
-12.342
-13.0015
-13.5131
-13.8552
-14.0104
-13.9665
-13.7182
-13.2666
-0.343789
-1.03323
-1.72791
-2.43031
-3.14133
-3.85988
-4.58245
-5.30286
-6.01223
-6.69904
-7.34946
-7.94794
-8.47782
-8.92231
-9.26537
-9.4928
-9.59314
-9.55855
-9.3855
-9.07508
-0.236741
-0.711368
-1.18922
-1.67173
-2.15934
-2.65111
-3.14453
-3.63531
-4.11737
-4.58291
-5.02265
-5.42617
-5.7824
-6.08019
-6.30896
-6.45937
-6.52392
-6.49754
-6.37799
-6.16611
-0.16177
-0.486007
-0.812196
-1.14117
-1.47308
-1.80721
-2.14176
-2.47378
-2.79915
-3.11263
-3.40802
-3.67839
-3.91642
-4.11476
-4.26646
-4.36539
-4.4067
-4.3871
-4.3052
-4.1616
-0.109722
-0.329586
-0.550616
-0.773281
-0.997606
-1.22303
-1.4483
-1.67141
-1.88958
-2.09931
-2.29649
-2.47654
-2.63465
-2.76598
-2.86601
-2.93076
-2.95705
-2.9428
-2.88712
-2.79047
-0.0739168
-0.222
-0.370769
-0.520481
-0.671101
-0.822212
-0.972945
-1.12194
-1.26735
-1.40684
-1.5377
-1.65693
-1.76137
-1.84788
-1.9135
-1.95565
-1.97231
-1.96212
-1.92455
-1.8599
-0.0495335
-0.148747
-0.248357
-0.348499
-0.449118
-0.549908
-0.650275
-0.749302
-0.845758
-0.93811
-1.02457
-1.10318
-1.17188
-1.22863
-1.2715
-1.29885
-1.30936
-1.30217
-1.27696
-1.23393
-0.0331375
-0.0994966
-0.166082
-0.232959
-0.300071
-0.367198
-0.433932
-0.499661
-0.563566
-0.624635
-0.6817
-0.733475
-0.778621
-0.815811
-0.843808
-0.861537
-0.868159
-0.863127
-0.846234
-0.817636
-0.0223194
-0.0670061
-0.111819
-0.156787
-0.201858
-0.246874
-0.291556
-0.335488
-0.378125
-0.418794
-0.456724
-0.49107
-0.520951
-0.545502
-0.563915
-0.575492
-0.57969
-0.576157
-0.564766
-0.545626
-0.0154274
-0.0463092
-0.0772609
-0.108291
-0.139356
-0.17034
-0.201045
-0.231184
-0.260382
-0.288183
-0.314063
-0.33745
-0.357753
-0.374391
-0.386822
-0.394582
-0.397309
-0.394773
-0.386892
-0.373744
-0.0113734
-0.0341361
-0.0569386
-0.0797805
-0.102623
-0.125377
-0.147893
-0.169961
-0.191305
-0.211594
-0.230448
-0.247456
-0.262191
-0.274236
-0.283205
-0.288765
-0.290661
-0.288729
-0.282915
-0.273276
-0.00950062
-0.0285131
-0.0475523
-0.0666143
-0.0856633
-0.104622
-0.123366
-0.141717
-0.159448
-0.176284
-0.191911
-0.205991
-0.218173
-0.228115
-0.2355
-0.240058
-0.241579
-0.239932
-0.235073
-0.227052
)
;

boundaryField
{
    topWall
    {
        type            calculated;
        value           nonuniform List<scalar> 
20
(
-0.00950062
-0.0285131
-0.0475523
-0.0666143
-0.0856633
-0.104622
-0.123366
-0.141717
-0.159448
-0.176284
-0.191911
-0.205991
-0.218173
-0.228115
-0.2355
-0.240058
-0.241579
-0.239932
-0.235073
-0.227052
)
;
    }
    bottomWall
    {
        type            calculated;
        value           nonuniform List<scalar> 
20
(
-23.816
-73.4299
-129.194
-195.92
-279.614
-388.218
-532.725
-728.923
-1000.27
-1382.9
-1934.68
-2753.05
-4012.3
-6050.39
-9595.35
-16439.4
-31723.4
-72551.2
-202309
-657543
)
;
    }
    sideWallL
    {
        type            symmetry;
    }
    sideWallR
    {
        type            calculated;
        value           nonuniform List<scalar> 
45
(
-1.01313e+06
-423810
-227451
-142272
-96847.3
-69097.6
-50675.1
-37798.9
-28496
-21625
-16473.6
-12572.2
-9597.98
-7321.28
-5574.88
-4234.52
-3206.46
-2419.24
-1817.93
-1360.06
-1012.71
-750.297
-552.968
-405.314
-295.41
-214.056
-154.182
-110.378
-78.528
-55.5151
-38.9943
-27.2117
-18.8644
-12.9907
-8.88596
-6.03739
-4.07459
-2.73205
-1.82091
-1.20803
-0.800453
-0.534147
-0.365873
-0.267516
-0.222263
)
;
    }
    frontAndBack
    {
        type            empty;
    }
}


// ************************************************************************* //
