/*--------------------------------*- C++ -*----------------------------------*\
  =========                 |
  \\      /  F ield         | OpenFOAM: The Open Source CFD Toolbox
   \\    /   O peration     | Website:  https://openfoam.org
    \\  /    A nd           | Version:  7
     \\/     M anipulation  |
\*---------------------------------------------------------------------------*/
FoamFile
{
    version     2.0;
    format      ascii;
    class       volScalarField;
    location    "22";
    object      rhoc;
}
// * * * * * * * * * * * * * * * * * * * * * * * * * * * * * * * * * * * * * //

dimensions      [1 -3 0 0 0 0 0];

internalField   nonuniform List<scalar> 
900
(
5.13252e-11
5.12637e-11
5.11354e-11
5.09295e-11
5.06285e-11
5.02066e-11
4.96273e-11
4.884e-11
4.77751e-11
4.63377e-11
4.43993e-11
4.1788e-11
3.82803e-11
3.36016e-11
2.74641e-11
1.9721e-11
1.0861e-11
3.14134e-12
1.28918e-13
1.71838e-18
4.39182e-13
4.37455e-13
4.33873e-13
4.2817e-13
4.19936e-13
4.08594e-13
3.93392e-13
3.73404e-13
3.47561e-13
3.14769e-13
2.74162e-13
2.256e-13
1.70497e-13
1.12932e-13
6.0407e-14
2.2391e-14
4.22135e-15
2.04573e-16
4.89509e-19
8.71874e-25
4.24013e-15
4.21056e-15
4.14955e-15
4.05337e-15
3.91647e-15
3.73171e-15
3.49091e-15
3.18602e-15
2.81142e-15
2.36769e-15
1.86709e-15
1.33984e-15
8.37406e-16
4.2521e-16
1.56472e-16
3.43392e-17
3.18394e-18
6.68099e-20
1.05187e-22
3.13802e-27
4.90365e-17
4.85424e-17
4.7529e-17
4.59478e-17
4.37315e-17
4.08042e-17
3.70985e-17
3.25858e-17
2.73196e-17
2.14914e-17
1.54796e-17
9.85187e-18
5.25714e-18
2.17383e-18
6.17582e-19
1.00118e-19
6.96246e-21
1.36607e-22
4.55591e-25
2.78794e-28
7.18416e-19
7.09102e-19
6.90112e-19
6.60783e-19
6.2029e-19
5.67906e-19
5.03407e-19
4.27656e-19
3.43301e-19
2.55375e-19
1.7132e-19
9.97837e-20
4.78306e-20
1.74958e-20
4.3908e-21
6.5258e-22
4.73494e-23
1.34865e-24
1.34401e-26
8.28153e-29
1.40084e-20
1.3793e-20
1.33562e-20
1.26878e-20
1.17774e-20
1.06209e-20
9.23059e-21
7.64663e-21
5.94848e-21
4.25895e-21
2.73156e-21
1.51342e-21
6.90065e-22
2.42887e-22
6.0776e-23
9.77859e-24
9.08553e-25
4.52947e-26
1.3254e-27
4.16701e-29
3.78557e-22
3.72084e-22
3.59015e-22
3.39167e-22
3.12426e-22
2.78948e-22
2.39432e-22
1.95408e-22
1.49445e-22
1.05081e-22
6.62725e-23
3.63195e-23
1.66189e-23
6.04663e-24
1.65329e-24
3.2053e-25
4.22187e-26
3.83505e-27
2.84787e-28
2.73468e-29
1.46089e-23
1.43459e-23
1.38166e-23
1.30172e-23
1.19485e-23
1.06237e-23
9.07833e-24
7.37966e-24
5.63126e-24
3.9665e-24
2.52546e-24
1.41681e-24
6.79612e-25
2.69549e-25
8.54921e-26
2.1144e-26
4.07932e-27
6.51713e-28
1.02181e-28
2.08291e-29
8.20523e-25
8.05716e-25
7.75985e-25
7.3123e-25
6.71657e-25
5.98184e-25
5.1293e-25
4.19648e-25
3.23882e-25
2.32558e-25
1.52806e-25
9.01533e-26
4.67885e-26
2.0938e-26
7.95782e-27
2.56296e-27
7.16777e-28
1.86733e-28
5.14454e-29
1.7357e-29
6.76766e-26
6.65096e-26
6.41681e-26
6.06474e-26
5.59664e-26
5.01967e-26
4.34968e-26
3.61424e-26
2.85365e-26
2.11819e-26
1.46043e-26
9.23441e-27
5.28997e-27
2.72018e-27
1.25272e-27
5.22286e-28
2.03475e-28
7.84875e-29
3.23805e-29
1.53142e-29
8.20583e-27
8.0771e-27
7.81874e-27
7.42997e-27
6.91219e-27
6.27193e-27
5.52421e-27
4.69565e-27
3.82583e-27
2.96528e-27
2.16905e-27
1.48621e-27
9.48424e-28
5.62606e-28
3.11703e-28
1.63679e-28
8.36971e-29
4.32957e-29
2.36158e-29
1.4031e-29
1.45484e-27
1.43517e-27
1.39564e-27
1.33602e-27
1.25631e-27
1.15714e-27
1.04025e-27
9.08926e-28
7.68295e-28
6.25186e-28
4.8748e-28
3.62897e-28
2.57501e-28
1.74461e-28
1.13605e-28
7.19991e-29
4.52356e-29
2.8805e-29
1.89963e-29
1.31882e-29
3.71756e-28
3.67669e-28
3.59443e-28
3.46996e-28
3.30269e-28
3.09296e-28
2.84296e-28
2.55763e-28
2.24531e-28
1.91792e-28
1.59019e-28
1.27796e-28
9.95723e-29
7.5411e-29
5.58213e-29
4.07355e-29
2.96356e-29
2.17629e-29
1.63219e-29
1.26175e-29
1.32772e-28
1.31651e-28
1.2939e-28
1.25957e-28
1.21318e-28
1.15455e-28
1.08385e-28
1.00189e-28
9.10275e-29
8.11553e-29
7.09139e-29
6.07058e-29
5.09463e-29
4.20056e-29
3.41551e-29
2.75354e-29
2.21556e-29
1.79199e-29
1.46694e-29
1.22227e-29
6.29982e-29
6.26077e-29
6.18185e-29
6.06163e-29
5.89835e-29
5.69045e-29
5.43727e-29
5.13974e-29
4.80115e-29
4.42775e-29
4.02887e-29
3.6166e-29
3.20476e-29
2.80738e-29
2.43701e-29
2.10323e-29
1.8118e-29
1.56456e-29
1.36005e-29
1.19455e-29
3.72978e-29
3.71325e-29
3.67979e-29
3.62869e-29
3.55901e-29
3.46979e-29
3.36028e-29
3.2302e-29
3.08011e-29
2.91161e-29
2.72758e-29
2.53212e-29
2.33042e-29
2.12828e-29
1.93159e-29
1.7457e-29
1.57488e-29
1.42206e-29
1.28867e-29
1.1749e-29
2.59381e-29
2.58567e-29
2.56919e-29
2.54397e-29
2.5095e-29
2.46517e-29
2.41046e-29
2.34499e-29
2.2687e-29
2.18195e-29
2.08569e-29
1.98145e-29
1.87137e-29
1.75805e-29
1.64439e-29
1.5333e-29
1.42746e-29
1.32913e-29
1.23993e-29
1.16087e-29
2.01809e-29
2.01361e-29
2.00454e-29
1.99064e-29
1.9716e-29
1.94707e-29
1.91668e-29
1.88014e-29
1.83728e-29
1.78814e-29
1.73301e-29
1.67251e-29
1.60761e-29
1.53954e-29
1.46982e-29
1.40005e-29
1.33187e-29
1.26681e-29
1.20613e-29
1.15083e-29
1.69573e-29
1.69306e-29
1.68764e-29
1.67934e-29
1.66796e-29
1.65329e-29
1.63508e-29
1.61312e-29
1.58725e-29
1.55744e-29
1.52377e-29
1.48649e-29
1.44608e-29
1.40316e-29
1.35856e-29
1.3132e-29
1.26808e-29
1.22419e-29
1.18245e-29
1.14363e-29
1.50188e-29
1.50019e-29
1.49677e-29
1.49152e-29
1.48433e-29
1.47506e-29
1.46354e-29
1.44963e-29
1.43322e-29
1.41425e-29
1.39273e-29
1.36878e-29
1.34264e-29
1.31465e-29
1.28527e-29
1.25507e-29
1.22466e-29
1.19468e-29
1.16575e-29
1.13846e-29
1.37928e-29
1.37816e-29
1.37591e-29
1.37246e-29
1.36774e-29
1.36164e-29
1.35408e-29
1.34495e-29
1.33417e-29
1.32168e-29
1.30749e-29
1.29166e-29
1.2743e-29
1.25562e-29
1.23589e-29
1.21545e-29
1.19471e-29
1.17406e-29
1.15394e-29
1.13475e-29
1.29894e-29
1.29819e-29
1.29667e-29
1.29434e-29
1.29115e-29
1.28704e-29
1.28195e-29
1.2758e-29
1.26854e-29
1.26014e-29
1.25059e-29
1.23991e-29
1.22818e-29
1.21552e-29
1.2021e-29
1.18813e-29
1.17387e-29
1.15959e-29
1.14557e-29
1.1321e-29
1.24501e-29
1.24449e-29
1.24344e-29
1.24184e-29
1.23965e-29
1.23683e-29
1.23334e-29
1.22914e-29
1.22418e-29
1.21845e-29
1.21193e-29
1.20464e-29
1.19662e-29
1.18796e-29
1.17875e-29
1.16915e-29
1.1593e-29
1.1494e-29
1.13964e-29
1.13021e-29
1.2082e-29
1.20784e-29
1.20711e-29
1.206e-29
1.20448e-29
1.20253e-29
1.20012e-29
1.19721e-29
1.19379e-29
1.18984e-29
1.18535e-29
1.18034e-29
1.17483e-29
1.16887e-29
1.16253e-29
1.1559e-29
1.1491e-29
1.14224e-29
1.13545e-29
1.12886e-29
1.18283e-29
1.18258e-29
1.18207e-29
1.18129e-29
1.18023e-29
1.17887e-29
1.17719e-29
1.17517e-29
1.1728e-29
1.17007e-29
1.16697e-29
1.1635e-29
1.1597e-29
1.15559e-29
1.15122e-29
1.14665e-29
1.14195e-29
1.1372e-29
1.13249e-29
1.12791e-29
1.16523e-29
1.16506e-29
1.1647e-29
1.16415e-29
1.16341e-29
1.16246e-29
1.16129e-29
1.15989e-29
1.15824e-29
1.15635e-29
1.1542e-29
1.15181e-29
1.14918e-29
1.14635e-29
1.14334e-29
1.14018e-29
1.13694e-29
1.13366e-29
1.13041e-29
1.12724e-29
1.153e-29
1.15287e-29
1.15262e-29
1.15224e-29
1.15172e-29
1.15106e-29
1.15024e-29
1.14927e-29
1.14813e-29
1.14681e-29
1.14533e-29
1.14368e-29
1.14187e-29
1.13992e-29
1.13784e-29
1.13568e-29
1.13345e-29
1.13119e-29
1.12896e-29
1.12677e-29
1.14449e-29
1.1444e-29
1.14423e-29
1.14396e-29
1.1436e-29
1.14314e-29
1.14257e-29
1.14189e-29
1.1411e-29
1.14019e-29
1.13917e-29
1.13803e-29
1.13679e-29
1.13545e-29
1.13403e-29
1.13254e-29
1.13102e-29
1.12947e-29
1.12794e-29
1.12644e-29
1.13858e-29
1.13852e-29
1.1384e-29
1.13821e-29
1.13796e-29
1.13764e-29
1.13725e-29
1.13678e-29
1.13623e-29
1.13561e-29
1.13491e-29
1.13413e-29
1.13327e-29
1.13236e-29
1.13139e-29
1.13037e-29
1.12933e-29
1.12828e-29
1.12724e-29
1.12622e-29
1.13449e-29
1.13445e-29
1.13436e-29
1.13423e-29
1.13406e-29
1.13384e-29
1.13357e-29
1.13325e-29
1.13287e-29
1.13244e-29
1.13196e-29
1.13143e-29
1.13085e-29
1.13023e-29
1.12957e-29
1.12888e-29
1.12817e-29
1.12746e-29
1.12675e-29
1.12606e-29
1.13167e-29
1.13164e-29
1.13158e-29
1.13149e-29
1.13137e-29
1.13122e-29
1.13104e-29
1.13082e-29
1.13056e-29
1.13027e-29
1.12994e-29
1.12958e-29
1.12919e-29
1.12876e-29
1.12832e-29
1.12785e-29
1.12738e-29
1.1269e-29
1.12642e-29
1.12595e-29
1.12973e-29
1.12971e-29
1.12967e-29
1.12961e-29
1.12953e-29
1.12943e-29
1.1293e-29
1.12915e-29
1.12898e-29
1.12878e-29
1.12856e-29
1.12831e-29
1.12805e-29
1.12776e-29
1.12746e-29
1.12715e-29
1.12683e-29
1.12651e-29
1.12619e-29
1.12588e-29
1.12841e-29
1.1284e-29
1.12837e-29
1.12833e-29
1.12827e-29
1.1282e-29
1.12812e-29
1.12802e-29
1.1279e-29
1.12777e-29
1.12762e-29
1.12745e-29
1.12728e-29
1.12709e-29
1.12689e-29
1.12668e-29
1.12646e-29
1.12625e-29
1.12604e-29
1.12583e-29
1.12751e-29
1.12751e-29
1.12749e-29
1.12746e-29
1.12742e-29
1.12737e-29
1.12732e-29
1.12725e-29
1.12717e-29
1.12708e-29
1.12698e-29
1.12687e-29
1.12675e-29
1.12663e-29
1.1265e-29
1.12636e-29
1.12622e-29
1.12607e-29
1.12593e-29
1.12579e-29
1.12691e-29
1.1269e-29
1.12689e-29
1.12687e-29
1.12685e-29
1.12682e-29
1.12678e-29
1.12673e-29
1.12668e-29
1.12662e-29
1.12656e-29
1.12648e-29
1.1264e-29
1.12632e-29
1.12623e-29
1.12614e-29
1.12605e-29
1.12595e-29
1.12586e-29
1.12577e-29
1.1265e-29
1.1265e-29
1.12649e-29
1.12648e-29
1.12646e-29
1.12644e-29
1.12642e-29
1.12639e-29
1.12635e-29
1.12631e-29
1.12627e-29
1.12622e-29
1.12617e-29
1.12612e-29
1.12606e-29
1.126e-29
1.12594e-29
1.12588e-29
1.12581e-29
1.12575e-29
1.12624e-29
1.12623e-29
1.12623e-29
1.12622e-29
1.12621e-29
1.12619e-29
1.12618e-29
1.12616e-29
1.12613e-29
1.12611e-29
1.12608e-29
1.12605e-29
1.12602e-29
1.12598e-29
1.12594e-29
1.1259e-29
1.12586e-29
1.12582e-29
1.12578e-29
1.12574e-29
1.12606e-29
1.12605e-29
1.12605e-29
1.12605e-29
1.12604e-29
1.12603e-29
1.12602e-29
1.12601e-29
1.12599e-29
1.12597e-29
1.12596e-29
1.12594e-29
1.12591e-29
1.12589e-29
1.12587e-29
1.12584e-29
1.12581e-29
1.12579e-29
1.12576e-29
1.12574e-29
1.12594e-29
1.12594e-29
1.12594e-29
1.12593e-29
1.12593e-29
1.12592e-29
1.12591e-29
1.12591e-29
1.1259e-29
1.12589e-29
1.12587e-29
1.12586e-29
1.12585e-29
1.12583e-29
1.12582e-29
1.1258e-29
1.12578e-29
1.12577e-29
1.12575e-29
1.12573e-29
1.12586e-29
1.12586e-29
1.12586e-29
1.12586e-29
1.12586e-29
1.12585e-29
1.12585e-29
1.12584e-29
1.12584e-29
1.12583e-29
1.12582e-29
1.12581e-29
1.1258e-29
1.12579e-29
1.12578e-29
1.12577e-29
1.12576e-29
1.12575e-29
1.12574e-29
1.12573e-29
1.12581e-29
1.12581e-29
1.12581e-29
1.12581e-29
1.12581e-29
1.12581e-29
1.1258e-29
1.1258e-29
1.1258e-29
1.12579e-29
1.12579e-29
1.12578e-29
1.12578e-29
1.12577e-29
1.12576e-29
1.12576e-29
1.12575e-29
1.12574e-29
1.12574e-29
1.12573e-29
1.12578e-29
1.12578e-29
1.12578e-29
1.12578e-29
1.12578e-29
1.12578e-29
1.12578e-29
1.12577e-29
1.12577e-29
1.12577e-29
1.12577e-29
1.12576e-29
1.12576e-29
1.12575e-29
1.12575e-29
1.12575e-29
1.12574e-29
1.12574e-29
1.12573e-29
1.12573e-29
1.12576e-29
1.12576e-29
1.12576e-29
1.12576e-29
1.12576e-29
1.12576e-29
1.12576e-29
1.12576e-29
1.12576e-29
1.12575e-29
1.12575e-29
1.12575e-29
1.12575e-29
1.12574e-29
1.12574e-29
1.12574e-29
1.12574e-29
1.12573e-29
1.12573e-29
1.12573e-29
1.12575e-29
1.12575e-29
1.12575e-29
1.12575e-29
1.12575e-29
1.12575e-29
1.12575e-29
1.12575e-29
1.12575e-29
1.12575e-29
1.12574e-29
1.12574e-29
1.12574e-29
1.12574e-29
1.12574e-29
1.12574e-29
1.12573e-29
1.12573e-29
1.12573e-29
1.12573e-29
1.12575e-29
1.12575e-29
1.12575e-29
1.12575e-29
1.12575e-29
1.12575e-29
1.12575e-29
1.12574e-29
1.12574e-29
1.12574e-29
1.12574e-29
1.12574e-29
1.12574e-29
1.12574e-29
1.12574e-29
1.12573e-29
1.12573e-29
1.12573e-29
1.12573e-29
1.12573e-29
)
;

boundaryField
{
    topWall
    {
        type            zeroGradient;
    }
    bottomWall
    {
        type            zeroGradient;
    }
    sideWallL
    {
        type            symmetry;
    }
    sideWallR
    {
        type            zeroGradient;
    }
    frontAndBack
    {
        type            empty;
    }
}


// ************************************************************************* //
