/*--------------------------------*- C++ -*----------------------------------*\
  =========                 |
  \\      /  F ield         | OpenFOAM: The Open Source CFD Toolbox
   \\    /   O peration     | Website:  https://openfoam.org
    \\  /    A nd           | Version:  7
     \\/     M anipulation  |
\*---------------------------------------------------------------------------*/
FoamFile
{
    version     2.0;
    format      ascii;
    class       volScalarField;
    location    "22";
    object      rhog;
}
// * * * * * * * * * * * * * * * * * * * * * * * * * * * * * * * * * * * * * //

dimensions      [1 -3 0 0 0 0 0];

internalField   nonuniform List<scalar> 
900
(
8.62196e-05
8.61588e-05
8.60321e-05
8.58286e-05
8.55305e-05
8.51119e-05
8.4535e-05
8.37472e-05
8.26742e-05
8.12111e-05
7.92095e-05
7.64569e-05
7.26464e-05
6.73322e-05
5.98698e-05
4.93706e-05
3.48868e-05
1.6938e-05
2.62608e-06
3.54427e-09
5.46073e-06
5.44805e-06
5.42166e-06
5.3795e-06
5.31825e-06
5.23313e-06
5.11759e-06
4.96295e-06
4.75803e-06
4.48893e-06
4.13932e-06
3.69195e-06
3.13284e-06
2.46075e-06
1.70526e-06
9.5292e-07
3.57861e-07
6.02912e-08
1.69996e-09
6.16729e-13
3.65791e-07
3.64275e-07
3.61134e-07
3.56145e-07
3.48965e-07
3.39118e-07
3.25988e-07
3.08834e-07
2.86826e-07
2.59153e-07
2.25248e-07
1.85197e-07
1.40358e-07
9.41094e-08
5.21752e-08
2.13057e-08
5.21757e-09
5.26575e-10
1.11653e-11
2.01409e-14
2.68681e-08
2.67063e-08
2.63723e-08
2.58457e-08
2.50956e-08
2.40814e-08
2.27553e-08
2.10666e-08
1.89719e-08
1.64527e-08
1.35416e-08
1.03574e-08
7.13593e-09
4.22581e-09
2.00195e-09
6.78825e-10
1.38692e-10
1.32158e-11
4.25779e-13
4.50239e-15
2.2406e-09
2.22314e-09
2.18726e-09
2.13109e-09
2.05191e-09
1.9464e-09
1.81104e-09
1.64291e-09
1.44092e-09
1.2077e-09
9.51796e-10
6.89527e-10
4.44732e-10
2.44075e-10
1.06912e-10
3.41903e-11
7.09138e-12
8.31258e-13
5.03926e-14
2.10081e-15
2.18852e-10
2.16818e-10
2.12657e-10
2.06185e-10
1.97152e-10
1.85274e-10
1.70296e-10
1.52095e-10
1.3082e-10
1.07066e-10
8.20365e-11
5.7581e-11
3.59579e-11
1.92201e-11
8.36391e-12
2.78571e-12
6.63499e-13
1.0729e-13
1.21912e-14
1.35868e-15
2.5693e-11
2.54261e-11
2.48817e-11
2.40401e-11
2.28755e-11
2.13611e-11
1.94788e-11
1.7231e-11
1.46578e-11
1.18538e-11
8.97839e-12
6.24845e-12
3.89988e-12
2.11874e-12
9.67579e-13
3.57981e-13
1.04165e-13
2.38554e-14
4.68815e-15
1.03814e-15
3.6961e-12
3.65543e-12
3.57273e-12
3.44549e-12
3.27058e-12
3.04515e-12
2.76787e-12
2.44084e-12
2.07157e-12
1.67494e-12
1.27382e-12
8.97121e-13
5.74378e-13
3.27407e-13
1.62642e-13
6.91902e-14
2.51049e-14
7.99366e-15
2.4542e-15
8.71733e-16
6.59592e-13
6.52268e-13
6.37408e-13
6.14625e-13
5.8346e-13
5.43528e-13
4.94746e-13
4.37619e-13
3.73556e-13
3.05118e-13
2.36057e-13
1.7096e-13
1.14417e-13
6.98526e-14
3.84907e-14
1.90695e-14
8.58689e-15
3.64968e-15
1.58103e-15
7.75196e-16
1.46851e-13
1.45279e-13
1.42094e-13
1.37222e-13
1.30576e-13
1.22089e-13
1.11755e-13
9.96841e-14
8.61601e-14
7.16838e-14
5.69753e-14
4.29106e-14
3.03785e-14
2.00826e-14
1.23611e-14
7.11516e-15
3.89484e-15
2.09824e-15
1.1712e-15
7.15052e-16
4.07994e-14
4.03971e-14
3.95824e-14
3.83377e-14
3.66423e-14
3.44794e-14
3.18465e-14
2.87676e-14
2.53058e-14
2.15728e-14
1.77305e-14
1.39789e-14
1.05281e-14
7.5585e-15
5.18164e-15
3.41838e-15
2.20526e-15
1.42625e-15
9.5306e-16
6.75744e-16
1.40885e-14
1.39665e-14
1.37196e-14
1.33425e-14
1.28288e-14
1.2173e-14
1.13733e-14
1.04347e-14
9.37239e-15
8.21462e-15
7.00346e-15
5.79246e-15
4.64056e-15
3.60275e-15
2.7201e-15
2.01238e-15
1.47655e-15
1.09145e-15
8.26279e-16
6.49197e-16
5.99555e-15
5.95229e-15
5.8647e-15
5.73088e-15
5.54844e-15
5.31515e-15
5.02975e-15
4.69303e-15
4.30886e-15
3.88512e-15
3.43417e-15
2.97245e-15
2.519e-15
2.09303e-15
1.71102e-15
1.38407e-15
1.11664e-15
9.06787e-16
7.47864e-16
6.30851e-16
3.09669e-15
3.07903e-15
3.04325e-15
2.98856e-15
2.91389e-15
2.8182e-15
2.7007e-15
2.56129e-15
2.4009e-15
2.22189e-15
2.02827e-15
1.82566e-15
1.62097e-15
1.42169e-15
1.23492e-15
1.06644e-15
9.20031e-16
7.97141e-16
6.9716e-16
6.17969e-16
1.89461e-15
1.88645e-15
1.86994e-15
1.84467e-15
1.81013e-15
1.76576e-15
1.71109e-15
1.64587e-15
1.57026e-15
1.48497e-15
1.39139e-15
1.29164e-15
1.18846e-15
1.08502e-15
9.84606e-16
8.90239e-16
8.04326e-16
7.28452e-16
6.63316e-16
6.08825e-16
1.3305e-15
1.32633e-15
1.31788e-15
1.30495e-15
1.28724e-15
1.26445e-15
1.23629e-15
1.20253e-15
1.16315e-15
1.11833e-15
1.06859e-15
1.01475e-15
9.58015e-16
8.99818e-16
8.41771e-16
7.85483e-16
7.32409e-16
6.83718e-16
6.40207e-16
6.02285e-16
1.03761e-15
1.03529e-15
1.03059e-15
1.02339e-15
1.01352e-15
1.00081e-15
9.85054e-16
9.66111e-16
9.43898e-16
9.18448e-16
8.89944e-16
8.58741e-16
8.2538e-16
7.90564e-16
7.55121e-16
7.19939e-16
6.8589e-16
6.53757e-16
6.24174e-16
5.97588e-16
8.72812e-16
8.71432e-16
8.68636e-16
8.64351e-16
8.5848e-16
8.50905e-16
8.41506e-16
8.30178e-16
8.16849e-16
8.01503e-16
7.84202e-16
7.65105e-16
7.44471e-16
7.22662e-16
7.00126e-16
6.77369e-16
6.5492e-16
6.33287e-16
6.12926e-16
5.94206e-16
7.74124e-16
7.7326e-16
7.71508e-16
7.68825e-16
7.65147e-16
7.60402e-16
7.5451e-16
7.474e-16
7.39015e-16
7.29332e-16
7.18367e-16
7.06194e-16
6.92943e-16
6.78812e-16
6.64053e-16
6.48964e-16
6.33871e-16
6.19105e-16
6.04979e-16
5.91768e-16
7.12162e-16
7.11599e-16
7.10459e-16
7.08712e-16
7.06319e-16
7.03232e-16
6.99399e-16
6.94772e-16
6.8931e-16
6.82991e-16
6.75817e-16
6.67823e-16
6.59079e-16
6.49697e-16
6.39825e-16
6.29644e-16
6.1936e-16
6.09187e-16
5.99339e-16
5.90013e-16
6.71865e-16
6.71488e-16
6.70723e-16
6.69553e-16
6.67952e-16
6.65888e-16
6.63327e-16
6.60235e-16
6.56586e-16
6.52362e-16
6.4756e-16
6.42198e-16
6.36316e-16
6.29979e-16
6.23279e-16
6.16329e-16
6.09259e-16
6.02211e-16
5.95329e-16
5.88751e-16
6.44977e-16
6.44719e-16
6.44196e-16
6.43397e-16
6.42304e-16
6.40897e-16
6.39153e-16
6.37049e-16
6.34568e-16
6.31696e-16
6.28431e-16
6.24782e-16
6.20772e-16
6.16444e-16
6.11852e-16
6.07071e-16
6.02185e-16
5.97287e-16
5.92476e-16
5.87845e-16
6.26708e-16
6.26529e-16
6.26167e-16
6.25614e-16
6.24858e-16
6.23886e-16
6.22683e-16
6.21234e-16
6.19527e-16
6.17553e-16
6.1531e-16
6.12802e-16
6.10047e-16
6.07068e-16
6.03904e-16
6.00601e-16
5.97215e-16
5.93809e-16
5.90448e-16
5.87198e-16
6.14141e-16
6.14016e-16
6.13763e-16
6.13377e-16
6.1285e-16
6.12173e-16
6.11337e-16
6.10332e-16
6.09149e-16
6.07783e-16
6.06232e-16
6.045e-16
6.02597e-16
6.0054e-16
5.98353e-16
5.96067e-16
5.9372e-16
5.91352e-16
5.8901e-16
5.86737e-16
6.05429e-16
6.05341e-16
6.05164e-16
6.04893e-16
6.04524e-16
6.04051e-16
6.03468e-16
6.02767e-16
6.01945e-16
6.00996e-16
5.99921e-16
5.98722e-16
5.97405e-16
5.95983e-16
5.9447e-16
5.92888e-16
5.91263e-16
5.89621e-16
5.87993e-16
5.8641e-16
5.99363e-16
5.99302e-16
5.99177e-16
5.98987e-16
5.98728e-16
5.98397e-16
5.9799e-16
5.97501e-16
5.96929e-16
5.9627e-16
5.95524e-16
5.94694e-16
5.93783e-16
5.928e-16
5.91755e-16
5.90662e-16
5.89539e-16
5.88404e-16
5.87277e-16
5.86179e-16
5.95133e-16
5.9509e-16
5.95002e-16
5.94869e-16
5.94688e-16
5.94457e-16
5.94172e-16
5.93832e-16
5.93434e-16
5.92977e-16
5.92461e-16
5.91886e-16
5.91257e-16
5.90579e-16
5.89859e-16
5.89107e-16
5.88333e-16
5.87551e-16
5.86774e-16
5.86016e-16
5.92184e-16
5.92154e-16
5.92093e-16
5.92e-16
5.91873e-16
5.91712e-16
5.91514e-16
5.91278e-16
5.91002e-16
5.90686e-16
5.90329e-16
5.89933e-16
5.895e-16
5.89034e-16
5.88539e-16
5.88023e-16
5.87492e-16
5.86956e-16
5.86423e-16
5.85903e-16
5.90133e-16
5.90112e-16
5.90069e-16
5.90005e-16
5.89917e-16
5.89805e-16
5.89668e-16
5.89504e-16
5.89314e-16
5.89096e-16
5.8885e-16
5.88578e-16
5.88281e-16
5.87962e-16
5.87624e-16
5.87271e-16
5.86909e-16
5.86543e-16
5.86179e-16
5.85824e-16
5.88711e-16
5.88696e-16
5.88667e-16
5.88622e-16
5.88561e-16
5.88484e-16
5.88389e-16
5.88277e-16
5.88146e-16
5.87996e-16
5.87828e-16
5.87642e-16
5.8744e-16
5.87222e-16
5.86992e-16
5.86752e-16
5.86506e-16
5.86257e-16
5.8601e-16
5.85769e-16
5.87729e-16
5.87719e-16
5.87699e-16
5.87668e-16
5.87626e-16
5.87573e-16
5.87508e-16
5.87431e-16
5.87341e-16
5.87239e-16
5.87125e-16
5.86998e-16
5.86861e-16
5.86713e-16
5.86558e-16
5.86395e-16
5.86229e-16
5.86061e-16
5.85894e-16
5.85731e-16
5.87054e-16
5.87047e-16
5.87033e-16
5.87012e-16
5.86984e-16
5.86947e-16
5.86903e-16
5.86851e-16
5.8679e-16
5.86721e-16
5.86643e-16
5.86558e-16
5.86465e-16
5.86366e-16
5.86261e-16
5.86152e-16
5.8604e-16
5.85927e-16
5.85815e-16
5.85706e-16
5.86593e-16
5.86589e-16
5.86579e-16
5.86565e-16
5.86545e-16
5.86521e-16
5.86491e-16
5.86455e-16
5.86414e-16
5.86367e-16
5.86315e-16
5.86258e-16
5.86196e-16
5.86129e-16
5.86059e-16
5.85986e-16
5.85911e-16
5.85836e-16
5.85761e-16
5.85688e-16
5.8628e-16
5.86277e-16
5.8627e-16
5.86261e-16
5.86248e-16
5.86231e-16
5.86211e-16
5.86187e-16
5.86159e-16
5.86128e-16
5.86093e-16
5.86055e-16
5.86014e-16
5.85969e-16
5.85922e-16
5.85874e-16
5.85824e-16
5.85774e-16
5.85725e-16
5.85677e-16
5.86069e-16
5.86066e-16
5.86062e-16
5.86056e-16
5.86047e-16
5.86036e-16
5.86022e-16
5.86006e-16
5.85988e-16
5.85967e-16
5.85944e-16
5.85919e-16
5.85891e-16
5.85862e-16
5.85831e-16
5.85799e-16
5.85766e-16
5.85733e-16
5.85701e-16
5.85669e-16
5.85927e-16
5.85925e-16
5.85922e-16
5.85918e-16
5.85912e-16
5.85905e-16
5.85896e-16
5.85885e-16
5.85873e-16
5.85859e-16
5.85844e-16
5.85827e-16
5.85809e-16
5.8579e-16
5.8577e-16
5.85749e-16
5.85727e-16
5.85706e-16
5.85684e-16
5.85663e-16
5.85832e-16
5.85831e-16
5.85829e-16
5.85826e-16
5.85823e-16
5.85818e-16
5.85812e-16
5.85805e-16
5.85797e-16
5.85788e-16
5.85778e-16
5.85767e-16
5.85755e-16
5.85742e-16
5.85729e-16
5.85715e-16
5.85701e-16
5.85687e-16
5.85673e-16
5.8566e-16
5.8577e-16
5.85769e-16
5.85768e-16
5.85766e-16
5.85763e-16
5.8576e-16
5.85756e-16
5.85752e-16
5.85746e-16
5.85741e-16
5.85734e-16
5.85727e-16
5.85719e-16
5.85711e-16
5.85702e-16
5.85694e-16
5.85684e-16
5.85675e-16
5.85666e-16
5.85658e-16
5.85728e-16
5.85728e-16
5.85727e-16
5.85726e-16
5.85724e-16
5.85722e-16
5.8572e-16
5.85717e-16
5.85713e-16
5.8571e-16
5.85705e-16
5.85701e-16
5.85696e-16
5.8569e-16
5.85685e-16
5.85679e-16
5.85673e-16
5.85668e-16
5.85662e-16
5.85656e-16
5.85702e-16
5.85701e-16
5.85701e-16
5.857e-16
5.85699e-16
5.85698e-16
5.85696e-16
5.85694e-16
5.85692e-16
5.85689e-16
5.85687e-16
5.85684e-16
5.85681e-16
5.85677e-16
5.85674e-16
5.8567e-16
5.85666e-16
5.85662e-16
5.85659e-16
5.85655e-16
5.85684e-16
5.85684e-16
5.85684e-16
5.85683e-16
5.85683e-16
5.85682e-16
5.85681e-16
5.85679e-16
5.85678e-16
5.85676e-16
5.85675e-16
5.85673e-16
5.85671e-16
5.85669e-16
5.85666e-16
5.85664e-16
5.85662e-16
5.85659e-16
5.85657e-16
5.85654e-16
5.85673e-16
5.85673e-16
5.85673e-16
5.85673e-16
5.85672e-16
5.85672e-16
5.85671e-16
5.8567e-16
5.85669e-16
5.85668e-16
5.85667e-16
5.85666e-16
5.85665e-16
5.85663e-16
5.85662e-16
5.8566e-16
5.85659e-16
5.85657e-16
5.85656e-16
5.85654e-16
5.85667e-16
5.85666e-16
5.85666e-16
5.85666e-16
5.85666e-16
5.85665e-16
5.85665e-16
5.85664e-16
5.85664e-16
5.85663e-16
5.85662e-16
5.85662e-16
5.85661e-16
5.8566e-16
5.85659e-16
5.85658e-16
5.85657e-16
5.85656e-16
5.85655e-16
5.85654e-16
5.85663e-16
5.85663e-16
5.85663e-16
5.85662e-16
5.85662e-16
5.85662e-16
5.85662e-16
5.85661e-16
5.85661e-16
5.8566e-16
5.8566e-16
5.85659e-16
5.85659e-16
5.85658e-16
5.85657e-16
5.85657e-16
5.85656e-16
5.85655e-16
5.85654e-16
5.85654e-16
5.85661e-16
5.85661e-16
5.85661e-16
5.85661e-16
5.8566e-16
5.8566e-16
5.8566e-16
5.8566e-16
5.85659e-16
5.85659e-16
5.85659e-16
5.85658e-16
5.85658e-16
5.85657e-16
5.85656e-16
5.85656e-16
5.85655e-16
5.85655e-16
5.85654e-16
5.85654e-16
)
;

boundaryField
{
    topWall
    {
        type            calculated;
        value           uniform 0;
    }
    bottomWall
    {
        type            zeroGradient;
    }
    sideWallL
    {
        type            symmetry;
    }
    sideWallR
    {
        type            calculated;
        value           uniform 0;
    }
    frontAndBack
    {
        type            empty;
    }
}


// ************************************************************************* //
