/*--------------------------------*- C++ -*----------------------------------*\
  =========                 |
  \\      /  F ield         | OpenFOAM: The Open Source CFD Toolbox
   \\    /   O peration     | Website:  https://openfoam.org
    \\  /    A nd           | Version:  7
     \\/     M anipulation  |
\*---------------------------------------------------------------------------*/
FoamFile
{
    version     2.0;
    format      ascii;
    class       volScalarField;
    location    "22";
    object      rhois;
}
// * * * * * * * * * * * * * * * * * * * * * * * * * * * * * * * * * * * * * //

dimensions      [1 -3 0 0 0 0 0];

internalField   nonuniform List<scalar> 
900
(
0.00128314
0.0012825
0.00128116
0.00127902
0.00127587
0.00127142
0.00126529
0.00125686
0.00124533
0.00122951
0.00120769
0.00117737
0.0011348
0.00107428
0.000986835
0.000858285
0.000667323
0.000395112
0.000102212
8.60195e-07
0.000169433
0.000169155
0.000168574
0.000167645
0.000166288
0.000164392
0.0001618
0.000158298
0.000153599
0.000147329
0.000139005
0.000128037
0.000113764
9.55892e-05
7.33574e-05
4.81768e-05
2.37325e-05
6.5513e-06
4.99612e-07
1.75327e-09
2.33982e-05
2.33296e-05
2.31871e-05
2.29599e-05
2.26308e-05
2.21755e-05
2.15614e-05
2.07468e-05
1.96804e-05
1.83033e-05
1.65544e-05
1.43852e-05
1.17874e-05
8.8418e-06
5.78234e-06
3.03332e-06
1.10124e-06
2.11713e-07
1.3444e-08
1.60208e-10
3.47129e-06
3.45652e-06
3.42595e-06
3.37745e-06
3.30778e-06
3.21248e-06
3.08586e-06
2.92121e-06
2.71123e-06
2.44918e-06
2.13102e-06
1.75905e-06
1.34696e-06
9.25096e-07
5.41267e-07
2.49171e-07
7.9872e-08
1.49112e-08
1.31279e-09
5.72955e-11
5.67654e-07
5.64537e-07
5.58106e-07
5.47964e-07
5.33516e-07
5.13977e-07
4.88411e-07
4.55809e-07
4.15263e-07
3.66256e-07
3.09123e-07
2.45645e-07
1.79632e-07
1.17037e-07
6.492e-08
2.87915e-08
9.40514e-09
2.06669e-09
2.93304e-10
3.40586e-11
1.04708e-07
1.04025e-07
1.02621e-07
1.00418e-07
9.73048e-08
9.31402e-08
8.77665e-08
8.10344e-08
7.28442e-08
6.32086e-08
5.23355e-08
4.0712e-08
2.91449e-08
1.86839e-08
1.03569e-08
4.75826e-09
1.73303e-09
4.86743e-10
1.10113e-10
2.52756e-11
2.22103e-08
2.20492e-08
2.17189e-08
2.12033e-08
2.048e-08
1.95214e-08
1.82991e-08
1.67901e-08
1.4986e-08
1.29063e-08
1.06127e-08
8.22064e-09
5.89764e-09
3.83868e-09
2.21382e-09
1.10461e-09
4.69155e-10
1.71193e-10
5.75349e-11
2.09979e-11
5.49824e-09
5.45633e-09
5.3706e-09
5.2374e-09
5.0516e-09
4.80726e-09
4.49859e-09
4.12165e-09
3.67651e-09
3.17011e-09
2.61899e-09
2.05088e-09
1.50319e-09
1.01698e-09
6.26542e-10
3.48133e-10
1.74729e-10
8.12191e-11
3.72414e-11
1.85979e-11
1.60467e-09
1.59247e-09
1.56757e-09
1.529e-09
1.47544e-09
1.40541e-09
1.31752e-09
1.21096e-09
1.08603e-09
9.4486e-10
7.91952e-10
6.34477e-10
4.81785e-10
3.43963e-10
2.29539e-10
1.43124e-10
8.42213e-11
4.8015e-11
2.77369e-11
1.71303e-11
5.55341e-10
5.51339e-10
5.43181e-10
5.30577e-10
5.13133e-10
4.90405e-10
4.61998e-10
4.27687e-10
3.87586e-10
3.42326e-10
2.93216e-10
2.42295e-10
1.92208e-10
1.45839e-10
1.05748e-10
7.35781e-11
4.96943e-11
3.32544e-11
2.26672e-11
1.61815e-11
2.2825e-10
2.26769e-10
2.23755e-10
2.19105e-10
2.12682e-10
2.04332e-10
1.93915e-10
1.81349e-10
1.66659e-10
1.50036e-10
1.31887e-10
1.12852e-10
9.3773e-11
7.55957e-11
5.92139e-11
4.52965e-11
3.41614e-11
2.57496e-11
1.97099e-11
1.55446e-11
1.10995e-10
1.10381e-10
1.0913e-10
1.07204e-10
1.04545e-10
1.01093e-10
9.67871e-11
9.15899e-11
8.55e-11
7.85754e-11
7.09503e-11
6.28445e-11
5.45558e-11
4.64324e-11
3.88254e-11
3.20325e-11
2.62491e-11
2.15449e-11
1.78734e-11
1.5106e-11
6.31655e-11
6.28819e-11
6.23052e-11
6.1417e-11
6.01921e-11
5.86015e-11
5.66171e-11
5.42177e-11
5.13968e-11
4.81704e-11
4.45852e-11
4.07223e-11
3.66971e-11
3.26504e-11
2.87338e-11
2.50888e-11
2.18271e-11
1.90174e-11
1.66809e-11
1.47984e-11
4.1278e-11
4.11342e-11
4.08419e-11
4.03919e-11
3.97713e-11
3.89654e-11
3.79592e-11
3.67401e-11
3.53017e-11
3.36473e-11
3.17931e-11
2.9771e-11
2.7629e-11
2.5429e-11
2.32414e-11
2.11373e-11
1.91801e-11
1.74185e-11
1.58818e-11
1.45802e-11
3.0223e-11
3.0144e-11
2.99834e-11
2.97361e-11
2.93953e-11
2.89526e-11
2.83993e-11
2.77279e-11
2.69333e-11
2.60147e-11
2.49778e-11
2.38357e-11
2.26096e-11
2.13285e-11
2.00272e-11
1.87433e-11
1.75132e-11
1.63688e-11
1.5334e-11
1.44239e-11
2.41623e-11
2.41159e-11
2.40215e-11
2.38763e-11
2.36761e-11
2.34161e-11
2.30911e-11
2.26961e-11
2.22276e-11
2.1684e-11
2.1067e-11
2.03819e-11
1.96389e-11
1.88524e-11
1.80404e-11
1.72238e-11
1.64239e-11
1.5661e-11
1.49525e-11
1.43115e-11
2.06125e-11
2.05837e-11
2.05252e-11
2.04351e-11
2.03111e-11
2.01501e-11
1.99488e-11
1.9704e-11
1.94132e-11
1.9075e-11
1.86895e-11
1.82592e-11
1.7789e-11
1.72864e-11
1.67613e-11
1.62258e-11
1.56925e-11
1.51746e-11
1.46838e-11
1.42304e-11
1.84223e-11
1.84037e-11
1.83658e-11
1.83076e-11
1.82275e-11
1.81235e-11
1.79936e-11
1.78357e-11
1.7648e-11
1.74293e-11
1.71795e-11
1.68996e-11
1.65922e-11
1.62614e-11
1.59129e-11
1.55537e-11
1.51919e-11
1.48357e-11
1.44932e-11
1.41718e-11
1.70159e-11
1.70034e-11
1.69781e-11
1.69392e-11
1.68858e-11
1.68166e-11
1.67301e-11
1.66251e-11
1.65003e-11
1.63548e-11
1.61885e-11
1.60017e-11
1.57959e-11
1.55734e-11
1.53377e-11
1.50931e-11
1.48445e-11
1.45975e-11
1.43574e-11
1.41294e-11
1.60851e-11
1.60765e-11
1.60592e-11
1.60327e-11
1.59962e-11
1.5949e-11
1.58902e-11
1.58188e-11
1.5734e-11
1.56352e-11
1.55223e-11
1.53953e-11
1.52552e-11
1.51034e-11
1.49419e-11
1.47734e-11
1.46014e-11
1.44291e-11
1.42604e-11
1.40989e-11
1.54553e-11
1.54494e-11
1.54373e-11
1.54189e-11
1.53936e-11
1.53609e-11
1.53202e-11
1.52709e-11
1.52125e-11
1.51445e-11
1.50667e-11
1.49794e-11
1.48829e-11
1.47782e-11
1.46666e-11
1.45498e-11
1.44301e-11
1.43097e-11
1.41911e-11
1.40769e-11
1.50224e-11
1.50183e-11
1.50098e-11
1.49969e-11
1.49791e-11
1.49563e-11
1.49278e-11
1.48934e-11
1.48528e-11
1.48055e-11
1.47515e-11
1.46909e-11
1.4624e-11
1.45513e-11
1.44738e-11
1.43926e-11
1.43091e-11
1.42249e-11
1.41417e-11
1.40611e-11
1.47218e-11
1.47188e-11
1.47128e-11
1.47037e-11
1.46912e-11
1.46751e-11
1.46551e-11
1.46309e-11
1.46025e-11
1.45694e-11
1.45318e-11
1.44895e-11
1.44429e-11
1.43924e-11
1.43384e-11
1.42819e-11
1.42236e-11
1.41648e-11
1.41064e-11
1.40497e-11
1.45115e-11
1.45094e-11
1.45052e-11
1.44987e-11
1.44898e-11
1.44784e-11
1.44643e-11
1.44474e-11
1.44274e-11
1.44042e-11
1.43779e-11
1.43484e-11
1.43159e-11
1.42807e-11
1.42431e-11
1.42038e-11
1.41632e-11
1.41221e-11
1.40814e-11
1.40417e-11
1.43639e-11
1.43625e-11
1.43594e-11
1.43548e-11
1.43486e-11
1.43405e-11
1.43306e-11
1.43186e-11
1.43046e-11
1.42884e-11
1.427e-11
1.42494e-11
1.42268e-11
1.42023e-11
1.41761e-11
1.41488e-11
1.41206e-11
1.4092e-11
1.40636e-11
1.4036e-11
1.42603e-11
1.42592e-11
1.42571e-11
1.42538e-11
1.42494e-11
1.42437e-11
1.42367e-11
1.42283e-11
1.42185e-11
1.42071e-11
1.41943e-11
1.418e-11
1.41642e-11
1.41472e-11
1.41291e-11
1.41101e-11
1.40906e-11
1.40708e-11
1.40511e-11
1.40319e-11
1.41875e-11
1.41867e-11
1.41852e-11
1.41829e-11
1.41798e-11
1.41758e-11
1.41709e-11
1.4165e-11
1.41581e-11
1.41502e-11
1.41413e-11
1.41313e-11
1.41204e-11
1.41086e-11
1.40961e-11
1.4083e-11
1.40695e-11
1.40559e-11
1.40423e-11
1.40291e-11
1.41365e-11
1.41359e-11
1.41349e-11
1.41333e-11
1.41311e-11
1.41283e-11
1.41249e-11
1.41208e-11
1.4116e-11
1.41105e-11
1.41043e-11
1.40974e-11
1.40899e-11
1.40818e-11
1.40731e-11
1.40641e-11
1.40549e-11
1.40455e-11
1.40362e-11
1.40271e-11
1.41009e-11
1.41005e-11
1.40998e-11
1.40986e-11
1.40971e-11
1.40952e-11
1.40928e-11
1.40899e-11
1.40866e-11
1.40828e-11
1.40786e-11
1.40738e-11
1.40686e-11
1.40631e-11
1.40572e-11
1.4051e-11
1.40447e-11
1.40383e-11
1.40319e-11
1.40257e-11
1.40761e-11
1.40759e-11
1.40753e-11
1.40746e-11
1.40735e-11
1.40722e-11
1.40705e-11
1.40686e-11
1.40663e-11
1.40637e-11
1.40607e-11
1.40575e-11
1.4054e-11
1.40502e-11
1.40461e-11
1.40419e-11
1.40376e-11
1.40333e-11
1.4029e-11
1.40247e-11
1.4059e-11
1.40588e-11
1.40585e-11
1.40579e-11
1.40572e-11
1.40563e-11
1.40551e-11
1.40538e-11
1.40522e-11
1.40504e-11
1.40485e-11
1.40462e-11
1.40438e-11
1.40413e-11
1.40385e-11
1.40357e-11
1.40328e-11
1.40299e-11
1.40269e-11
1.40241e-11
1.40472e-11
1.40471e-11
1.40469e-11
1.40465e-11
1.4046e-11
1.40454e-11
1.40446e-11
1.40437e-11
1.40426e-11
1.40414e-11
1.404e-11
1.40385e-11
1.40369e-11
1.40352e-11
1.40333e-11
1.40314e-11
1.40295e-11
1.40275e-11
1.40255e-11
1.40236e-11
1.40392e-11
1.40391e-11
1.40389e-11
1.40387e-11
1.40383e-11
1.40379e-11
1.40374e-11
1.40367e-11
1.4036e-11
1.40352e-11
1.40343e-11
1.40333e-11
1.40322e-11
1.4031e-11
1.40298e-11
1.40285e-11
1.40272e-11
1.40259e-11
1.40246e-11
1.40233e-11
1.40337e-11
1.40336e-11
1.40335e-11
1.40333e-11
1.40331e-11
1.40328e-11
1.40325e-11
1.40321e-11
1.40316e-11
1.4031e-11
1.40304e-11
1.40297e-11
1.4029e-11
1.40282e-11
1.40274e-11
1.40266e-11
1.40257e-11
1.40248e-11
1.4024e-11
1.40231e-11
1.403e-11
1.40299e-11
1.40299e-11
1.40298e-11
1.40296e-11
1.40294e-11
1.40292e-11
1.40289e-11
1.40286e-11
1.40282e-11
1.40278e-11
1.40274e-11
1.40269e-11
1.40264e-11
1.40258e-11
1.40253e-11
1.40247e-11
1.40241e-11
1.40235e-11
1.4023e-11
1.40275e-11
1.40275e-11
1.40274e-11
1.40274e-11
1.40272e-11
1.40271e-11
1.4027e-11
1.40268e-11
1.40266e-11
1.40263e-11
1.40261e-11
1.40258e-11
1.40254e-11
1.40251e-11
1.40248e-11
1.40244e-11
1.4024e-11
1.40236e-11
1.40233e-11
1.40229e-11
1.40258e-11
1.40258e-11
1.40258e-11
1.40257e-11
1.40257e-11
1.40256e-11
1.40255e-11
1.40254e-11
1.40252e-11
1.40251e-11
1.40249e-11
1.40247e-11
1.40245e-11
1.40243e-11
1.4024e-11
1.40238e-11
1.40236e-11
1.40233e-11
1.40231e-11
1.40228e-11
1.40248e-11
1.40247e-11
1.40247e-11
1.40247e-11
1.40246e-11
1.40246e-11
1.40245e-11
1.40244e-11
1.40243e-11
1.40242e-11
1.40241e-11
1.4024e-11
1.40239e-11
1.40237e-11
1.40236e-11
1.40234e-11
1.40233e-11
1.40231e-11
1.40229e-11
1.40228e-11
1.4024e-11
1.4024e-11
1.4024e-11
1.4024e-11
1.4024e-11
1.40239e-11
1.40239e-11
1.40238e-11
1.40238e-11
1.40237e-11
1.40236e-11
1.40235e-11
1.40235e-11
1.40234e-11
1.40233e-11
1.40232e-11
1.40231e-11
1.4023e-11
1.40229e-11
1.40228e-11
1.40236e-11
1.40236e-11
1.40235e-11
1.40235e-11
1.40235e-11
1.40235e-11
1.40235e-11
1.40234e-11
1.40234e-11
1.40233e-11
1.40233e-11
1.40232e-11
1.40232e-11
1.40231e-11
1.40231e-11
1.4023e-11
1.40229e-11
1.40229e-11
1.40228e-11
1.40227e-11
1.40233e-11
1.40233e-11
1.40232e-11
1.40232e-11
1.40232e-11
1.40232e-11
1.40232e-11
1.40232e-11
1.40231e-11
1.40231e-11
1.40231e-11
1.40231e-11
1.4023e-11
1.4023e-11
1.40229e-11
1.40229e-11
1.40229e-11
1.40228e-11
1.40228e-11
1.40227e-11
1.40231e-11
1.40231e-11
1.40231e-11
1.40231e-11
1.4023e-11
1.4023e-11
1.4023e-11
1.4023e-11
1.4023e-11
1.4023e-11
1.4023e-11
1.40229e-11
1.40229e-11
1.40229e-11
1.40229e-11
1.40228e-11
1.40228e-11
1.40228e-11
1.40228e-11
1.40227e-11
1.40229e-11
1.40229e-11
1.40229e-11
1.40229e-11
1.40229e-11
1.40229e-11
1.40229e-11
1.40229e-11
1.40229e-11
1.40229e-11
1.40229e-11
1.40229e-11
1.40228e-11
1.40228e-11
1.40228e-11
1.40228e-11
1.40228e-11
1.40228e-11
1.40227e-11
1.40227e-11
1.40229e-11
1.40229e-11
1.40229e-11
1.40229e-11
1.40229e-11
1.40229e-11
1.40229e-11
1.40229e-11
1.40228e-11
1.40228e-11
1.40228e-11
1.40228e-11
1.40228e-11
1.40228e-11
1.40228e-11
1.40228e-11
1.40228e-11
1.40227e-11
1.40227e-11
1.40227e-11
1.40228e-11
1.40228e-11
1.40228e-11
1.40228e-11
1.40228e-11
1.40228e-11
1.40228e-11
1.40228e-11
1.40228e-11
1.40228e-11
1.40228e-11
1.40228e-11
1.40228e-11
1.40228e-11
1.40228e-11
1.40228e-11
1.40228e-11
1.40227e-11
1.40227e-11
1.40227e-11
)
;

boundaryField
{
    topWall
    {
        type            zeroGradient;
    }
    bottomWall
    {
        type            zeroGradient;
    }
    sideWallL
    {
        type            symmetry;
    }
    sideWallR
    {
        type            zeroGradient;
    }
    frontAndBack
    {
        type            empty;
    }
}


// ************************************************************************* //
