/*--------------------------------*- C++ -*----------------------------------*\
  =========                 |
  \\      /  F ield         | OpenFOAM: The Open Source CFD Toolbox
   \\    /   O peration     | Website:  https://openfoam.org
    \\  /    A nd           | Version:  7
     \\/     M anipulation  |
\*---------------------------------------------------------------------------*/
FoamFile
{
    version     2.0;
    format      ascii;
    class       volScalarField;
    location    "22";
    object      rhot1;
}
// * * * * * * * * * * * * * * * * * * * * * * * * * * * * * * * * * * * * * //

dimensions      [1 -3 0 0 0 0 0];

internalField   nonuniform List<scalar> 
900
(
0.000719904
0.000719414
0.000718392
0.000716749
0.000714344
0.000710965
0.000706307
0.000699943
0.000691269
0.000679435
0.00066323
0.000640919
0.000609985
0.000566749
0.000505837
0.000419702
0.00029986
0.000148948
2.44904e-05
4.07697e-08
4.9617e-05
4.95056e-05
4.92739e-05
4.89035e-05
4.83652e-05
4.76166e-05
4.65997e-05
4.52373e-05
4.34294e-05
4.1051e-05
3.79536e-05
3.39769e-05
2.8984e-05
2.29428e-05
1.60861e-05
9.15709e-06
3.54752e-06
6.3248e-07
1.99878e-08
9.40664e-12
3.61098e-06
3.59651e-06
3.56654e-06
3.51891e-06
3.45032e-06
3.35615e-06
3.23043e-06
3.06591e-06
2.85434e-06
2.58752e-06
2.25929e-06
1.86939e-06
1.42952e-06
9.70894e-07
5.48563e-07
2.3053e-07
5.90609e-08
6.41761e-09
1.54308e-10
3.4585e-13
2.8748e-07
2.85806e-07
2.82353e-07
2.76903e-07
2.69132e-07
2.58612e-07
2.44832e-07
2.27242e-07
2.05356e-07
1.78923e-07
1.48206e-07
1.14352e-07
7.97452e-08
4.80334e-08
2.33129e-08
8.18694e-09
1.76131e-09
1.81282e-10
6.5538e-12
8.16769e-14
2.58962e-08
2.57013e-08
2.53005e-08
2.46725e-08
2.37862e-08
2.26032e-08
2.10822e-08
1.91873e-08
1.69018e-08
1.42493e-08
1.13185e-08
8.28712e-09
5.42253e-09
3.03508e-09
1.36592e-09
4.53501e-10
9.90861e-11
1.24821e-11
8.34312e-13
3.9219e-14
2.72047e-09
2.69606e-09
2.64607e-09
2.56825e-09
2.45949e-09
2.31619e-09
2.13504e-09
1.91413e-09
1.65473e-09
1.36338e-09
1.05398e-09
7.48558e-10
4.74831e-10
2.59148e-10
1.15943e-10
4.00658e-11
1.00185e-11
1.72586e-12
2.12341e-13
2.57839e-14
3.41757e-10
3.38329e-10
3.31334e-10
3.20509e-10
3.05505e-10
2.85955e-10
2.61583e-10
2.32369e-10
1.98761e-10
1.61901e-10
1.23789e-10
8.72134e-11
5.53084e-11
3.06764e-11
1.43886e-11
5.50885e-12
1.67393e-12
4.04465e-13
8.46348e-14
1.98986e-14
5.2312e-11
5.17567e-11
5.06266e-11
4.88861e-11
4.64896e-11
4.33936e-11
3.95743e-11
3.50516e-11
2.99188e-11
2.43693e-11
1.87097e-11
1.33378e-11
8.67265e-12
5.04146e-12
2.56685e-12
1.1259e-12
4.24055e-13
1.41098e-13
4.54349e-14
1.68153e-14
9.87446e-12
9.76878e-12
9.5542e-12
9.22484e-12
8.77354e-12
8.19395e-12
7.48374e-12
6.64875e-12
5.70762e-12
4.69575e-12
3.66634e-12
2.68611e-12
1.82387e-12
1.13363e-12
6.3854e-13
3.24852e-13
1.50907e-13
6.64077e-14
2.97835e-14
1.50156e-14
2.31164e-12
2.28782e-12
2.23952e-12
2.16556e-12
2.06451e-12
1.93518e-12
1.77723e-12
1.59202e-12
1.38351e-12
1.15897e-12
9.29094e-13
7.07226e-13
5.0727e-13
3.40716e-13
2.13738e-13
1.2579e-13
7.05944e-14
3.90371e-14
2.23259e-14
1.38895e-14
6.71466e-13
6.65104e-13
6.52216e-13
6.32504e-13
6.05611e-13
5.71229e-13
5.29259e-13
4.80005e-13
4.24377e-13
3.64058e-13
3.01551e-13
2.40014e-13
1.82846e-13
1.33066e-13
9.26697e-14
6.22256e-14
4.0908e-14
2.6956e-14
1.83135e-14
1.31513e-14
2.41106e-13
2.39106e-13
2.35056e-13
2.28863e-13
2.20415e-13
2.0961e-13
1.964e-13
1.80845e-13
1.63169e-13
1.43811e-13
1.2344e-13
1.02926e-13
8.32493e-14
6.53471e-14
4.99495e-14
3.74473e-14
2.78508e-14
2.08529e-14
1.59633e-14
1.26515e-14
1.06119e-13
1.05388e-13
1.03906e-13
1.01641e-13
9.8549e-14
9.45879e-14
8.97314e-14
8.39852e-14
7.74064e-14
7.01196e-14
6.23261e-14
5.42989e-14
4.63609e-14
3.88448e-14
3.20438e-14
2.61659e-14
2.13072e-14
1.74526e-14
1.45014e-14
1.23056e-14
5.636e-14
5.60538e-14
5.54335e-14
5.44842e-14
5.31869e-14
5.15217e-14
4.94731e-14
4.70367e-14
4.42253e-14
4.10767e-14
3.76568e-14
3.4061e-14
3.04082e-14
2.68294e-14
2.34521e-14
2.03826e-14
1.76938e-14
1.54185e-14
1.35522e-14
1.20624e-14
3.52417e-14
3.50975e-14
3.48053e-14
3.43578e-14
3.37456e-14
3.2958e-14
3.1986e-14
3.08243e-14
2.94741e-14
2.79469e-14
2.62657e-14
2.44666e-14
2.25976e-14
2.07148e-14
1.88775e-14
1.71409e-14
1.55504e-14
1.41372e-14
1.29166e-14
1.18896e-14
2.51479e-14
2.50729e-14
2.4921e-14
2.46882e-14
2.43693e-14
2.39584e-14
2.345e-14
2.28396e-14
2.21261e-14
2.13124e-14
2.04067e-14
1.94237e-14
1.83842e-14
1.73141e-14
1.62424e-14
1.51987e-14
1.42103e-14
1.32993e-14
1.24817e-14
1.1766e-14
1.98318e-14
1.97895e-14
1.97039e-14
1.95727e-14
1.93928e-14
1.91607e-14
1.88729e-14
1.85264e-14
1.81194e-14
1.76524e-14
1.71282e-14
1.6553e-14
1.59365e-14
1.52914e-14
1.46326e-14
1.39766e-14
1.33396e-14
1.27365e-14
1.21794e-14
1.16771e-14
1.68078e-14
1.67825e-14
1.6731e-14
1.66522e-14
1.65441e-14
1.64046e-14
1.62313e-14
1.60222e-14
1.57759e-14
1.5492e-14
1.51714e-14
1.48168e-14
1.44331e-14
1.40266e-14
1.36056e-14
1.31795e-14
1.27581e-14
1.23511e-14
1.1967e-14
1.16131e-14
1.4982e-14
1.4966e-14
1.49335e-14
1.48838e-14
1.48156e-14
1.47276e-14
1.46182e-14
1.4486e-14
1.43301e-14
1.41498e-14
1.39455e-14
1.37183e-14
1.34706e-14
1.32061e-14
1.29294e-14
1.2646e-14
1.2362e-14
1.20836e-14
1.18168e-14
1.15669e-14
1.38286e-14
1.38181e-14
1.37968e-14
1.37642e-14
1.37196e-14
1.3662e-14
1.35905e-14
1.35041e-14
1.3402e-14
1.32838e-14
1.31495e-14
1.29997e-14
1.28357e-14
1.26595e-14
1.24739e-14
1.22822e-14
1.20884e-14
1.18963e-14
1.17102e-14
1.15337e-14
1.30749e-14
1.30678e-14
1.30535e-14
1.30316e-14
1.30016e-14
1.2963e-14
1.2915e-14
1.2857e-14
1.27886e-14
1.27093e-14
1.26191e-14
1.25184e-14
1.24077e-14
1.22884e-14
1.21622e-14
1.20311e-14
1.18977e-14
1.17645e-14
1.16343e-14
1.15098e-14
1.25703e-14
1.25655e-14
1.25556e-14
1.25406e-14
1.25201e-14
1.24937e-14
1.24609e-14
1.24213e-14
1.23747e-14
1.23206e-14
1.22592e-14
1.21904e-14
1.21149e-14
1.20332e-14
1.19466e-14
1.18563e-14
1.1764e-14
1.16714e-14
1.15803e-14
1.14926e-14
1.22266e-14
1.22232e-14
1.22164e-14
1.2206e-14
1.21917e-14
1.21734e-14
1.21508e-14
1.21235e-14
1.20913e-14
1.20541e-14
1.20118e-14
1.19645e-14
1.19125e-14
1.18562e-14
1.17964e-14
1.1734e-14
1.167e-14
1.16055e-14
1.15419e-14
1.14803e-14
1.19897e-14
1.19873e-14
1.19825e-14
1.19753e-14
1.19653e-14
1.19526e-14
1.19368e-14
1.19178e-14
1.18955e-14
1.18697e-14
1.18404e-14
1.18077e-14
1.17717e-14
1.17329e-14
1.16915e-14
1.16483e-14
1.16038e-14
1.1559e-14
1.15147e-14
1.14716e-14
1.18252e-14
1.18235e-14
1.18202e-14
1.18151e-14
1.18081e-14
1.17992e-14
1.17882e-14
1.17749e-14
1.17594e-14
1.17415e-14
1.17211e-14
1.16985e-14
1.16736e-14
1.16467e-14
1.1618e-14
1.15881e-14
1.15573e-14
1.15262e-14
1.14954e-14
1.14654e-14
1.17106e-14
1.17094e-14
1.1707e-14
1.17035e-14
1.16986e-14
1.16923e-14
1.16846e-14
1.16754e-14
1.16645e-14
1.16521e-14
1.1638e-14
1.16223e-14
1.1605e-14
1.15864e-14
1.15666e-14
1.1546e-14
1.15247e-14
1.15032e-14
1.14818e-14
1.1461e-14
1.16306e-14
1.16297e-14
1.16281e-14
1.16256e-14
1.16221e-14
1.16178e-14
1.16124e-14
1.1606e-14
1.15984e-14
1.15898e-14
1.158e-14
1.15691e-14
1.15572e-14
1.15444e-14
1.15307e-14
1.15165e-14
1.15018e-14
1.1487e-14
1.14723e-14
1.1458e-14
1.15748e-14
1.15742e-14
1.1573e-14
1.15713e-14
1.15689e-14
1.15658e-14
1.15621e-14
1.15576e-14
1.15524e-14
1.15464e-14
1.15396e-14
1.15321e-14
1.1524e-14
1.15151e-14
1.15058e-14
1.1496e-14
1.14859e-14
1.14758e-14
1.14657e-14
1.14558e-14
1.15359e-14
1.15355e-14
1.15347e-14
1.15335e-14
1.15318e-14
1.15297e-14
1.15271e-14
1.1524e-14
1.15204e-14
1.15163e-14
1.15116e-14
1.15065e-14
1.15009e-14
1.14948e-14
1.14884e-14
1.14817e-14
1.14749e-14
1.14679e-14
1.1461e-14
1.14543e-14
1.1509e-14
1.15087e-14
1.15082e-14
1.15073e-14
1.15062e-14
1.15047e-14
1.15029e-14
1.15008e-14
1.14983e-14
1.14955e-14
1.14923e-14
1.14888e-14
1.14849e-14
1.14808e-14
1.14764e-14
1.14719e-14
1.14672e-14
1.14625e-14
1.14578e-14
1.14533e-14
1.14904e-14
1.14902e-14
1.14898e-14
1.14892e-14
1.14884e-14
1.14874e-14
1.14862e-14
1.14848e-14
1.14831e-14
1.14811e-14
1.1479e-14
1.14766e-14
1.1474e-14
1.14712e-14
1.14682e-14
1.14651e-14
1.1462e-14
1.14588e-14
1.14556e-14
1.14526e-14
1.14776e-14
1.14775e-14
1.14772e-14
1.14768e-14
1.14763e-14
1.14756e-14
1.14748e-14
1.14738e-14
1.14726e-14
1.14713e-14
1.14698e-14
1.14682e-14
1.14665e-14
1.14646e-14
1.14626e-14
1.14605e-14
1.14584e-14
1.14563e-14
1.14541e-14
1.14521e-14
1.14689e-14
1.14688e-14
1.14686e-14
1.14683e-14
1.1468e-14
1.14675e-14
1.14669e-14
1.14663e-14
1.14655e-14
1.14646e-14
1.14636e-14
1.14625e-14
1.14614e-14
1.14601e-14
1.14588e-14
1.14574e-14
1.1456e-14
1.14545e-14
1.14531e-14
1.14517e-14
1.1463e-14
1.14629e-14
1.14628e-14
1.14626e-14
1.14623e-14
1.1462e-14
1.14616e-14
1.14612e-14
1.14607e-14
1.14601e-14
1.14594e-14
1.14587e-14
1.14579e-14
1.14571e-14
1.14562e-14
1.14553e-14
1.14543e-14
1.14534e-14
1.14524e-14
1.14515e-14
1.14589e-14
1.14589e-14
1.14588e-14
1.14587e-14
1.14585e-14
1.14583e-14
1.14581e-14
1.14578e-14
1.14574e-14
1.1457e-14
1.14566e-14
1.14561e-14
1.14556e-14
1.1455e-14
1.14544e-14
1.14538e-14
1.14532e-14
1.14526e-14
1.1452e-14
1.14514e-14
1.14563e-14
1.14562e-14
1.14562e-14
1.14561e-14
1.1456e-14
1.14558e-14
1.14557e-14
1.14555e-14
1.14552e-14
1.1455e-14
1.14547e-14
1.14544e-14
1.1454e-14
1.14537e-14
1.14533e-14
1.14529e-14
1.14525e-14
1.14521e-14
1.14517e-14
1.14513e-14
1.14545e-14
1.14544e-14
1.14544e-14
1.14544e-14
1.14543e-14
1.14542e-14
1.14541e-14
1.14539e-14
1.14538e-14
1.14536e-14
1.14534e-14
1.14532e-14
1.1453e-14
1.14528e-14
1.14525e-14
1.14523e-14
1.1452e-14
1.14517e-14
1.14515e-14
1.14512e-14
1.14533e-14
1.14533e-14
1.14532e-14
1.14532e-14
1.14532e-14
1.14531e-14
1.1453e-14
1.14529e-14
1.14528e-14
1.14527e-14
1.14526e-14
1.14525e-14
1.14523e-14
1.14522e-14
1.1452e-14
1.14518e-14
1.14517e-14
1.14515e-14
1.14513e-14
1.14512e-14
1.14525e-14
1.14525e-14
1.14525e-14
1.14525e-14
1.14524e-14
1.14524e-14
1.14523e-14
1.14523e-14
1.14522e-14
1.14521e-14
1.14521e-14
1.1452e-14
1.14519e-14
1.14518e-14
1.14517e-14
1.14516e-14
1.14515e-14
1.14513e-14
1.14512e-14
1.14511e-14
1.1452e-14
1.1452e-14
1.1452e-14
1.1452e-14
1.14519e-14
1.14519e-14
1.14519e-14
1.14518e-14
1.14518e-14
1.14518e-14
1.14517e-14
1.14517e-14
1.14516e-14
1.14515e-14
1.14515e-14
1.14514e-14
1.14513e-14
1.14512e-14
1.14512e-14
1.14511e-14
1.14517e-14
1.14517e-14
1.14517e-14
1.14516e-14
1.14516e-14
1.14516e-14
1.14516e-14
1.14516e-14
1.14515e-14
1.14515e-14
1.14515e-14
1.14514e-14
1.14514e-14
1.14514e-14
1.14513e-14
1.14513e-14
1.14512e-14
1.14512e-14
1.14511e-14
1.14511e-14
1.14515e-14
1.14515e-14
1.14514e-14
1.14514e-14
1.14514e-14
1.14514e-14
1.14514e-14
1.14514e-14
1.14514e-14
1.14514e-14
1.14513e-14
1.14513e-14
1.14513e-14
1.14513e-14
1.14512e-14
1.14512e-14
1.14512e-14
1.14511e-14
1.14511e-14
1.14511e-14
1.14513e-14
1.14513e-14
1.14513e-14
1.14513e-14
1.14513e-14
1.14513e-14
1.14513e-14
1.14513e-14
1.14513e-14
1.14513e-14
1.14512e-14
1.14512e-14
1.14512e-14
1.14512e-14
1.14512e-14
1.14512e-14
1.14511e-14
1.14511e-14
1.14511e-14
1.14511e-14
1.14513e-14
1.14513e-14
1.14513e-14
1.14512e-14
1.14512e-14
1.14512e-14
1.14512e-14
1.14512e-14
1.14512e-14
1.14512e-14
1.14512e-14
1.14512e-14
1.14512e-14
1.14512e-14
1.14512e-14
1.14511e-14
1.14511e-14
1.14511e-14
1.14511e-14
1.14511e-14
1.14512e-14
1.14512e-14
1.14512e-14
1.14512e-14
1.14512e-14
1.14512e-14
1.14512e-14
1.14512e-14
1.14512e-14
1.14512e-14
1.14512e-14
1.14512e-14
1.14512e-14
1.14511e-14
1.14511e-14
1.14511e-14
1.14511e-14
1.14511e-14
1.14511e-14
1.14511e-14
)
;

boundaryField
{
    topWall
    {
        type            zeroGradient;
    }
    bottomWall
    {
        type            zeroGradient;
    }
    sideWallL
    {
        type            symmetry;
    }
    sideWallR
    {
        type            calculated;
        value           uniform 0;
    }
    frontAndBack
    {
        type            empty;
    }
}


// ************************************************************************* //
