/*--------------------------------*- C++ -*----------------------------------*\
  =========                 |
  \\      /  F ield         | OpenFOAM: The Open Source CFD Toolbox
   \\    /   O peration     | Website:  https://openfoam.org
    \\  /    A nd           | Version:  7
     \\/     M anipulation  |
\*---------------------------------------------------------------------------*/
FoamFile
{
    version     2.0;
    format      ascii;
    class       volScalarField;
    location    "22";
    object      rhot2;
}
// * * * * * * * * * * * * * * * * * * * * * * * * * * * * * * * * * * * * * //

dimensions      [1 -3 0 0 0 0 0];

internalField   nonuniform List<scalar> 
900
(
1.66261e-08
1.6604e-08
1.65581e-08
1.64845e-08
1.63769e-08
1.62262e-08
1.60197e-08
1.57396e-08
1.53616e-08
1.4853e-08
1.41701e-08
1.32553e-08
1.2036e-08
1.04279e-08
8.35317e-09
5.80313e-09
3.01097e-09
7.68528e-10
2.2677e-11
8.59549e-17
8.9495e-11
8.9104e-11
8.82936e-11
8.70054e-11
8.51492e-11
8.26002e-11
7.91976e-11
7.47475e-11
6.90352e-11
6.18565e-11
5.30826e-11
4.27772e-11
3.13753e-11
1.98874e-11
9.94886e-12
3.3143e-12
5.21067e-13
1.80232e-14
2.13416e-17
6.97406e-24
5.36206e-13
5.32031e-13
5.23429e-13
5.09901e-13
4.90717e-13
4.64961e-13
4.31629e-13
3.89825e-13
3.39113e-13
2.80064e-13
2.14982e-13
1.48587e-13
8.8059e-14
4.14087e-14
1.35985e-14
2.50683e-15
1.76015e-16
2.32072e-18
1.61904e-21
1.1261e-26
3.83135e-15
3.78805e-15
3.69941e-15
3.56161e-15
3.36952e-15
3.11771e-15
2.80223e-15
2.42333e-15
1.98931e-15
1.52079e-15
1.05345e-15
6.35409e-16
3.14663e-16
1.17102e-16
2.86012e-17
3.71697e-18
1.85837e-19
2.20907e-21
3.43019e-24
6.83194e-28
3.48734e-17
3.43641e-17
3.33285e-17
3.17366e-17
2.95543e-17
2.67591e-17
2.33635e-17
1.9447e-17
1.51893e-17
1.08909e-17
6.95303e-18
3.78703e-18
1.65674e-18
5.34532e-19
1.12739e-19
1.31438e-20
6.78259e-22
1.19867e-23
6.19744e-26
1.64924e-28
4.28955e-19
4.21495e-19
4.06416e-19
3.83474e-19
3.52491e-19
3.13608e-19
2.67615e-19
2.16337e-19
1.62908e-19
1.1171e-19
6.76569e-20
3.47348e-20
1.43079e-20
4.39681e-21
9.17393e-22
1.15758e-22
7.78396e-24
2.53906e-25
4.33093e-27
7.3283e-29
7.48813e-21
7.3427e-21
7.0502e-21
6.60891e-21
6.02015e-21
5.29304e-21
4.45037e-21
3.53402e-21
2.60716e-21
1.74867e-21
1.03682e-21
5.24194e-22
2.15917e-22
6.85121e-23
1.56875e-23
2.42028e-24
2.38409e-25
1.50804e-26
7.26568e-28
4.44266e-29
1.92441e-22
1.88488e-22
1.80567e-22
1.68689e-22
1.52977e-22
1.33784e-22
1.1183e-22
8.8309e-23
6.4892e-23
4.35303e-23
2.60262e-23
1.34692e-23
5.82817e-24
2.02801e-24
5.45431e-25
1.09842e-25
1.64747e-26
1.94909e-27
2.17868e-28
3.21016e-29
7.45416e-24
7.29991e-24
6.99151e-24
6.53072e-24
5.92406e-24
5.18706e-24
4.34883e-24
3.45523e-24
2.56796e-24
1.75705e-24
1.08591e-24
5.93025e-25
2.79373e-25
1.10853e-25
3.63422e-26
9.7859e-27
2.2132e-27
4.52275e-28
9.63613e-29
2.58048e-29
4.40096e-25
4.31335e-25
4.13833e-25
3.87712e-25
3.53359e-25
3.11643e-25
2.64147e-25
2.13315e-25
1.6241e-25
1.15141e-25
7.49481e-26
4.41212e-26
2.31461e-26
1.06926e-26
4.32928e-27
1.55067e-27
5.07607e-28
1.61943e-28
5.52842e-29
2.22037e-29
3.96516e-26
3.89267e-26
3.74779e-26
3.53135e-26
3.24609e-26
2.89835e-26
2.49975e-26
2.06845e-26
1.62903e-26
1.21018e-26
8.39991e-27
5.39754e-27
3.18683e-27
1.72282e-27
8.55977e-28
3.96791e-28
1.76846e-28
7.93045e-29
3.77542e-29
1.99852e-29
5.41436e-27
5.32787e-27
5.15474e-27
4.89537e-27
4.55198e-27
4.13035e-27
3.64179e-27
3.10466e-27
2.54474e-27
1.99348e-27
1.4839e-27
1.04456e-27
6.93515e-28
4.34764e-28
2.591e-28
1.48874e-28
8.43074e-29
4.83943e-29
2.89891e-29
1.85477e-29
1.10242e-27
1.08783e-27
1.05856e-27
1.01455e-27
9.55913e-28
8.83258e-28
7.97955e-28
7.02427e-28
6.00283e-28
4.96206e-28
3.95504e-28
3.03344e-28
2.2385e-28
1.5936e-28
1.10141e-28
7.46797e-29
5.03823e-29
3.43763e-29
2.41013e-29
1.75832e-29
3.24499e-28
3.21125e-28
3.14342e-28
3.04097e-28
2.90358e-28
2.73168e-28
2.52712e-28
2.29377e-28
2.03804e-28
1.76888e-28
1.49735e-28
1.23536e-28
9.94078e-29
7.82179e-29
6.04623e-29
4.62305e-29
3.52676e-29
2.70976e-29
2.11607e-29
1.69201e-29
1.31439e-28
1.30414e-28
1.28348e-28
1.25215e-28
1.20987e-28
1.15651e-28
1.09222e-28
1.01768e-28
9.3422e-29
8.43918e-29
7.49588e-29
6.54569e-29
5.6238e-29
4.76277e-29
3.98837e-29
3.31663e-29
2.75309e-29
2.29409e-29
1.92948e-29
1.64565e-29
6.88214e-29
6.84315e-29
6.76443e-29
6.64465e-29
6.48221e-29
6.27569e-29
6.02444e-29
5.72926e-29
5.39305e-29
5.02133e-29
4.62241e-29
4.20713e-29
3.7881e-29
3.37846e-29
2.99045e-29
2.63407e-29
2.3162e-29
2.04027e-29
1.80655e-29
1.61286e-29
4.37042e-29
4.35276e-29
4.31704e-29
4.26257e-29
4.18842e-29
4.09364e-29
3.9775e-29
3.83972e-29
3.6808e-29
3.50226e-29
3.30683e-29
3.09845e-29
2.88213e-29
2.6636e-29
2.44879e-29
2.24327e-29
2.05176e-29
1.87776e-29
1.7234e-29
1.5895e-29
3.18681e-29
3.17768e-29
3.15921e-29
3.13099e-29
3.09248e-29
3.04309e-29
2.98227e-29
2.90962e-29
2.8251e-29
2.72908e-29
2.6225e-29
2.50692e-29
2.38452e-29
2.25797e-29
2.13028e-29
2.00453e-29
1.88366e-29
1.7702e-29
1.66612e-29
1.57277e-29
2.55889e-29
2.55369e-29
2.54318e-29
2.5271e-29
2.50513e-29
2.47689e-29
2.44201e-29
2.40017e-29
2.35121e-29
2.29518e-29
2.2324e-29
2.16354e-29
2.0896e-29
2.01192e-29
1.9321e-29
1.85188e-29
1.77306e-29
1.69734e-29
1.62618e-29
1.56078e-29
2.19601e-29
2.19284e-29
2.18643e-29
2.17662e-29
2.16321e-29
2.14595e-29
2.1246e-29
2.09894e-29
2.0688e-29
2.03415e-29
1.99509e-29
1.95193e-29
1.90515e-29
1.85548e-29
1.80379e-29
1.7511e-29
1.69854e-29
1.64719e-29
1.59809e-29
1.55216e-29
1.97309e-29
1.97106e-29
1.96695e-29
1.96067e-29
1.95208e-29
1.94103e-29
1.92735e-29
1.91089e-29
1.89152e-29
1.8692e-29
1.84396e-29
1.81592e-29
1.78536e-29
1.75268e-29
1.71838e-29
1.68308e-29
1.64749e-29
1.61231e-29
1.57826e-29
1.54598e-29
1.83009e-29
1.82875e-29
1.82602e-29
1.82186e-29
1.81618e-29
1.80887e-29
1.79982e-29
1.78893e-29
1.77611e-29
1.76133e-29
1.74457e-29
1.72591e-29
1.70551e-29
1.68358e-29
1.66044e-29
1.63649e-29
1.61215e-29
1.5879e-29
1.56421e-29
1.54156e-29
1.73556e-29
1.73465e-29
1.7328e-29
1.72998e-29
1.72613e-29
1.72119e-29
1.71507e-29
1.70772e-29
1.69907e-29
1.68908e-29
1.67776e-29
1.66514e-29
1.65132e-29
1.63642e-29
1.62065e-29
1.60426e-29
1.58752e-29
1.57075e-29
1.55427e-29
1.5384e-29
1.67177e-29
1.67114e-29
1.66987e-29
1.66793e-29
1.66529e-29
1.66189e-29
1.6577e-29
1.65267e-29
1.64675e-29
1.63993e-29
1.6322e-29
1.62358e-29
1.61412e-29
1.60393e-29
1.59311e-29
1.58184e-29
1.5703e-29
1.55869e-29
1.54723e-29
1.53615e-29
1.62813e-29
1.6277e-29
1.62682e-29
1.62547e-29
1.62364e-29
1.62129e-29
1.61839e-29
1.61492e-29
1.61084e-29
1.60615e-29
1.60083e-29
1.59491e-29
1.58841e-29
1.58141e-29
1.57397e-29
1.5662e-29
1.55824e-29
1.55021e-29
1.54227e-29
1.53456e-29
1.59804e-29
1.59773e-29
1.59712e-29
1.59618e-29
1.59491e-29
1.59327e-29
1.59127e-29
1.58886e-29
1.58604e-29
1.5828e-29
1.57913e-29
1.57505e-29
1.57058e-29
1.56576e-29
1.56064e-29
1.5553e-29
1.54981e-29
1.54427e-29
1.53878e-29
1.53343e-29
1.57719e-29
1.57697e-29
1.57654e-29
1.57589e-29
1.575e-29
1.57387e-29
1.57247e-29
1.5708e-29
1.56885e-29
1.56661e-29
1.56408e-29
1.56127e-29
1.5582e-29
1.55488e-29
1.55136e-29
1.54769e-29
1.54392e-29
1.54011e-29
1.53633e-29
1.53264e-29
1.56272e-29
1.56257e-29
1.56227e-29
1.56182e-29
1.5612e-29
1.56041e-29
1.55944e-29
1.55829e-29
1.55694e-29
1.55539e-29
1.55365e-29
1.55172e-29
1.54961e-29
1.54733e-29
1.54492e-29
1.54241e-29
1.53982e-29
1.53721e-29
1.53462e-29
1.53209e-29
1.55269e-29
1.55259e-29
1.55238e-29
1.55206e-29
1.55163e-29
1.55109e-29
1.55042e-29
1.54962e-29
1.54869e-29
1.54763e-29
1.54643e-29
1.54511e-29
1.54366e-29
1.54211e-29
1.54046e-29
1.53874e-29
1.53698e-29
1.5352e-29
1.53343e-29
1.53171e-29
1.54575e-29
1.54568e-29
1.54553e-29
1.54532e-29
1.54502e-29
1.54464e-29
1.54418e-29
1.54363e-29
1.543e-29
1.54227e-29
1.54145e-29
1.54055e-29
1.53956e-29
1.5385e-29
1.53738e-29
1.53622e-29
1.53502e-29
1.53381e-29
1.53261e-29
1.53144e-29
1.54097e-29
1.54092e-29
1.54082e-29
1.54067e-29
1.54046e-29
1.54021e-29
1.53989e-29
1.53952e-29
1.53908e-29
1.53858e-29
1.53803e-29
1.53741e-29
1.53675e-29
1.53603e-29
1.53527e-29
1.53448e-29
1.53368e-29
1.53286e-29
1.53205e-29
1.53126e-29
1.53768e-29
1.53765e-29
1.53758e-29
1.53748e-29
1.53734e-29
1.53716e-29
1.53695e-29
1.53669e-29
1.5364e-29
1.53606e-29
1.53569e-29
1.53527e-29
1.53482e-29
1.53434e-29
1.53383e-29
1.5333e-29
1.53276e-29
1.53221e-29
1.53167e-29
1.53113e-29
1.53544e-29
1.53542e-29
1.53537e-29
1.5353e-29
1.53521e-29
1.53509e-29
1.53494e-29
1.53477e-29
1.53457e-29
1.53435e-29
1.53409e-29
1.53381e-29
1.53351e-29
1.53319e-29
1.53285e-29
1.53249e-29
1.53213e-29
1.53177e-29
1.5314e-29
1.53105e-29
1.53392e-29
1.53391e-29
1.53387e-29
1.53383e-29
1.53376e-29
1.53368e-29
1.53359e-29
1.53347e-29
1.53334e-29
1.53318e-29
1.53302e-29
1.53283e-29
1.53263e-29
1.53241e-29
1.53219e-29
1.53195e-29
1.53171e-29
1.53147e-29
1.53123e-29
1.53099e-29
1.53289e-29
1.53288e-29
1.53286e-29
1.53283e-29
1.53279e-29
1.53273e-29
1.53267e-29
1.53259e-29
1.5325e-29
1.5324e-29
1.53229e-29
1.53217e-29
1.53203e-29
1.53189e-29
1.53174e-29
1.53159e-29
1.53143e-29
1.53127e-29
1.53111e-29
1.53095e-29
1.53221e-29
1.5322e-29
1.53218e-29
1.53216e-29
1.53214e-29
1.5321e-29
1.53206e-29
1.53201e-29
1.53195e-29
1.53188e-29
1.53181e-29
1.53172e-29
1.53164e-29
1.53154e-29
1.53144e-29
1.53134e-29
1.53124e-29
1.53113e-29
1.53103e-29
1.53093e-29
1.53175e-29
1.53174e-29
1.53173e-29
1.53172e-29
1.5317e-29
1.53168e-29
1.53165e-29
1.53161e-29
1.53158e-29
1.53153e-29
1.53148e-29
1.53143e-29
1.53137e-29
1.53131e-29
1.53125e-29
1.53118e-29
1.53111e-29
1.53104e-29
1.53098e-29
1.53091e-29
1.53144e-29
1.53144e-29
1.53143e-29
1.53142e-29
1.53141e-29
1.5314e-29
1.53138e-29
1.53136e-29
1.53133e-29
1.5313e-29
1.53127e-29
1.53124e-29
1.5312e-29
1.53116e-29
1.53112e-29
1.53107e-29
1.53103e-29
1.53099e-29
1.53094e-29
1.5309e-29
1.53124e-29
1.53124e-29
1.53124e-29
1.53123e-29
1.53122e-29
1.53121e-29
1.5312e-29
1.53119e-29
1.53117e-29
1.53115e-29
1.53113e-29
1.53111e-29
1.53109e-29
1.53106e-29
1.53103e-29
1.53101e-29
1.53098e-29
1.53095e-29
1.53092e-29
1.53089e-29
1.53111e-29
1.53111e-29
1.53111e-29
1.53111e-29
1.5311e-29
1.53109e-29
1.53109e-29
1.53108e-29
1.53107e-29
1.53105e-29
1.53104e-29
1.53103e-29
1.53101e-29
1.531e-29
1.53098e-29
1.53096e-29
1.53094e-29
1.53092e-29
1.53091e-29
1.53089e-29
1.53103e-29
1.53103e-29
1.53103e-29
1.53102e-29
1.53102e-29
1.53102e-29
1.53101e-29
1.53101e-29
1.531e-29
1.53099e-29
1.53098e-29
1.53097e-29
1.53096e-29
1.53095e-29
1.53094e-29
1.53093e-29
1.53092e-29
1.53091e-29
1.5309e-29
1.53089e-29
1.53098e-29
1.53098e-29
1.53097e-29
1.53097e-29
1.53097e-29
1.53097e-29
1.53097e-29
1.53096e-29
1.53096e-29
1.53095e-29
1.53095e-29
1.53094e-29
1.53093e-29
1.53093e-29
1.53092e-29
1.53091e-29
1.53091e-29
1.5309e-29
1.53089e-29
1.53088e-29
1.53094e-29
1.53094e-29
1.53094e-29
1.53094e-29
1.53094e-29
1.53094e-29
1.53094e-29
1.53093e-29
1.53093e-29
1.53093e-29
1.53092e-29
1.53092e-29
1.53092e-29
1.53091e-29
1.53091e-29
1.5309e-29
1.5309e-29
1.53089e-29
1.53089e-29
1.53088e-29
1.53092e-29
1.53092e-29
1.53092e-29
1.53092e-29
1.53092e-29
1.53092e-29
1.53092e-29
1.53092e-29
1.53092e-29
1.53091e-29
1.53091e-29
1.53091e-29
1.5309e-29
1.5309e-29
1.5309e-29
1.5309e-29
1.53089e-29
1.53089e-29
1.53088e-29
1.53088e-29
1.53092e-29
1.53092e-29
1.53092e-29
1.53092e-29
1.53091e-29
1.53091e-29
1.53091e-29
1.53091e-29
1.53091e-29
1.53091e-29
1.5309e-29
1.5309e-29
1.5309e-29
1.5309e-29
1.53089e-29
1.53089e-29
1.53089e-29
1.53089e-29
1.53088e-29
1.53088e-29
)
;

boundaryField
{
    topWall
    {
        type            zeroGradient;
    }
    bottomWall
    {
        type            zeroGradient;
    }
    sideWallL
    {
        type            symmetry;
    }
    sideWallR
    {
        type            zeroGradient;
    }
    frontAndBack
    {
        type            empty;
    }
}


// ************************************************************************* //
