/*--------------------------------*- C++ -*----------------------------------*\
  =========                 |
  \\      /  F ield         | OpenFOAM: The Open Source CFD Toolbox
   \\    /   O peration     | Website:  https://openfoam.org
    \\  /    A nd           | Version:  7
     \\/     M anipulation  |
\*---------------------------------------------------------------------------*/
FoamFile
{
    version     2.0;
    format      ascii;
    class       volScalarField;
    location    "36";
    object      gradTy;
}
// * * * * * * * * * * * * * * * * * * * * * * * * * * * * * * * * * * * * * //

dimensions      [0 -1 0 1 0 0 0];

internalField   nonuniform List<scalar> 
900
(
-280937
-281225
-281817
-282746
-284064
-285848
-288206
-291289
-295304
-300544
-307424
-316549
-328832
-345714
-369625
-405069
-461438
-561049
-763303
-1.23096e+06
-205755
-205992
-206477
-207239
-208318
-209777
-211702
-214212
-217475
-221718
-227267
-234584
-244341
-257530
-275608
-300586
-334548
-376238
-404427
-310042
-167410
-167615
-168037
-168696
-169625
-170871
-172500
-174599
-177282
-180702
-185053
-190585
-197597
-206408
-217215
-229635
-241343
-244269
-215665
-109169
-149340
-149515
-149872
-150427
-151202
-152228
-153548
-155211
-157280
-159819
-162893
-166541
-170725
-175224
-179389
-181657
-178602
-163408
-124635
-50322.3
-133932
-134065
-134334
-134748
-135318
-136057
-136982
-138106
-139437
-140965
-142647
-144366
-145878
-146697
-145915
-141914
-132005
-112224
-78113.7
-28265.7
-119357
-119445
-119622
-119889
-120247
-120695
-121226
-121825
-122458
-123064
-123529
-123659
-123127
-121398
-117633
-110581
-98539.8
-79581.4
-52384.6
-18018.1
-105648
-105694
-105783
-105913
-106074
-106254
-106431
-106569
-106608
-106458
-105975
-104942
-103034
-99781.9
-94533.4
-86450.1
-74584.4
-58135.9
-36980.5
-12415.5
-92932.2
-92939.8
-92951.5
-92959.3
-92949.6
-92901.2
-92781.9
-92543.9
-92116.9
-91398.9
-90244.3
-88448.9
-85733.2
-81729.8
-75982.8
-67980.7
-57249.5
-43539.7
-27106.4
-8987.56
-81279.3
-81254.9
-81201.4
-81108.3
-80958.7
-80727.1
-80376.7
-79855.4
-79091.1
-77985
-76404.7
-74176.4
-71079.8
-66849
-61187.4
-53806.5
-44500.8
-33263.2
-20420.6
-6723.25
-70710
-70660.3
-70555.4
-70383.9
-70127.4
-69759.2
-69241.9
-68524.7
-67539.9
-66199.9
-64392.5
-61979.6
-58797.7
-54665.1
-49400.1
-42853.8
-34962.1
-25810.7
-15695.9
-5145.5
-61208.1
-61139.7
-60997.2
-60769.2
-60437.6
-59976.4
-59350.5
-58513.5
-57406.3
-55955
-54069.9
-51646.3
-48568.4
-44717.9
-39990.2
-34319.1
-27709
-20270.4
-12244.9
-4002.92
-52732
-52651
-52483.7
-52219.2
-51840.8
-51324.7
-50639.6
-49745.5
-48592.8
-47122
-45264.2
-42943.2
-40080
-36601.3
-32451.9
-27611.4
-22114.2
-16067.2
-9659.02
-3151.48
-45223.4
-45135.2
-44954.2
-44670.5
-44269.2
-43729.6
-43024.9
-42121.9
-40980.7
-39554.9
-37793.3
-35642.3
-33050.1
-29973.8
-26388.3
-22297.4
-17745.4
-12825.6
-7682.42
-2503.09
-38613.8
-38523.1
-38337.5
-38048.5
-37643.5
-37105
-36410.8
-35534.2
-34443.9
-33105.2
-31480.9
-29534.5
-27233.6
-24555
-21491.3
-18057.8
-14298.9
-10292.3
-6147.91
-2001.04
-32829.7
-32740
-32557
-32273.6
-31879.4
-31360
-30697.7
-29871.5
-28857.7
-27630.6
-26164.4
-24434.9
-22422.8
-20117.6
-17521.7
-14654.7
-11557
-8291.62
-4942.04
-1607.27
-27795.8
-27709.6
-27534.5
-27264.7
-26891.5
-26403.7
-25787.4
-25026.6
-24103.6
-23000
-21698.4
-20183.3
-18444.4
-16478.8
-14293.6
-11909.3
-9360.73
-6698.21
-3985.36
-1295.31
-23437.4
-23356.7
-23193.2
-22942.1
-22596.7
-22148.3
-21586.3
-20898.6
-20072.5
-19095.2
-17955.2
-16643.3
-15154.8
-13491.2
-11661.7
-9685.49
-7591.91
-5420.79
-3220.73
-1046.26
-19682.6
-19608.6
-19458.8
-19229.7
-18916
-18511
-18006.9
-17394.9
-16666
-15811.6
-14824.3
-13699.3
-12435.3
-11036.1
-9511.55
-7878.53
-6161.37
-4391.49
-2606.12
-846.245
-16463.3
-16396.6
-16261.7
-16056
-15775.5
-15415.2
-14969.5
-14432
-13796.5
-13057.5
-12210.7
-11253.9
-10188
-9017.65
-7752.42
-6406.84
-5000.76
-3558.93
-2109.98
-684.894
-13716
-13656.7
-13536.9
-13354.8
-13107.4
-12791
-12401.7
-11935
-11386.8
-10753.7
-10033.4
-9225.5
-8332.03
-7358
-6311.99
-5206.31
-4057.04
-2883.65
-1708.21
-554.312
-11382
-11329.9
-11225
-11065.7
-10850.1
-10575.4
-10239
-9837.76
-9369.21
-8831.34
-8223.24
-7545.53
-6800.74
-5993.77
-5132.12
-4226.07
-3288.57
-2334.91
-1382.18
-448.396
-9407.99
-9362.79
-9271.85
-9134.12
-8948.13
-8712.1
-8424.11
-8082.29
-7685.1
-7231.57
-6721.64
-6156.49
-5538.82
-4873.12
-4165.84
-3425.45
-2662.34
-1888.53
-1117.26
-362.369
-7745.71
-7706.89
-7628.86
-7510.92
-7352.04
-7151.04
-6906.67
-6617.81
-6283.64
-5903.84
-5478.88
-5010.19
-4500.4
-3953.5
-3374.94
-2771.66
-2151.95
-1525.26
-901.875
-292.452
-6351.98
-6318.95
-6252.63
-6152.53
-6017.98
-5848.23
-5642.52
-5400.23
-5121.01
-4804.99
-4452.89
-4066.21
-3647.38
-3199.88
-2728.25
-2238.13
-1736.13
-1229.68
-726.771
-235.628
-5188.45
-5160.58
-5104.67
-5020.41
-4907.39
-4765.13
-4593.22
-4391.38
-4159.6
-3898.2
-3608.06
-3290.62
-2948.06
-2583.33
-2200.2
-1803.23
-1397.66
-989.348
-584.494
-189.47
-4221.22
-4197.9
-4151.14
-4080.76
-3986.51
-3868.14
-3725.46
-3558.41
-3367.16
-3152.18
-2914.33
-2654.98
-2376.01
-2079.9
-1769.76
-1449.24
-1122.51
-794.153
-469.011
-152.012
-3420.61
-3401.23
-3362.41
-3304.04
-3225.99
-3128.16
-3010.5
-2873.09
-2716.2
-2540.34
-2346.35
-2135.43
-1909.21
-1669.76
-1419.58
-1161.63
-899.188
-635.86
-375.41
-121.659
-2760.72
-2744.73
-2712.72
-2664.63
-2600.43
-2520.09
-2423.65
-2311.28
-2183.29
-2040.18
-1882.73
-1711.99
-1529.32
-1336.43
-1135.36
-928.442
-718.297
-507.732
-299.682
-97.1067
-2219.13
-2206.02
-2179.8
-2140.44
-2087.96
-2022.38
-1943.8
-1852.42
-1748.56
-1632.69
-1505.51
-1367.9
-1221.02
-1066.25
-905.231
-739.83
-572.102
-404.245
-238.542
-77.2872
-1776.52
-1765.84
-1744.49
-1712.47
-1669.82
-1616.6
-1552.94
-1479.03
-1395.19
-1301.85
-1199.59
-1089.19
-971.574
-847.88
-719.419
-587.668
-454.244
-320.862
-189.298
-61.3262
-1416.33
-1407.68
-1390.4
-1364.51
-1330.05
-1287.11
-1235.81
-1176.35
-1109.02
-1034.18
-952.353
-864.163
-770.381
-671.918
-569.82
-465.254
-359.487
-253.856
-149.737
-48.5057
-1124.44
-1117.48
-1103.58
-1082.76
-1055.08
-1020.62
-979.509
-931.923
-878.112
-818.407
-753.228
-683.095
-608.633
-530.573
-449.744
-367.064
-283.522
-200.161
-118.045
-38.2363
-888.9
-883.332
-872.211
-855.568
-833.454
-805.952
-773.175
-735.287
-692.501
-645.096
-593.419
-537.896
-479.03
-417.402
-353.667
-288.544
-222.806
-157.26
-92.7298
-30.0343
-699.607
-695.176
-686.33
-673.098
-655.53
-633.699
-607.709
-577.698
-543.849
-506.394
-465.617
-421.863
-375.532
-327.085
-277.038
-225.952
-174.427
-123.088
-72.5698
-23.5032
-548.08
-544.575
-537.579
-527.12
-513.241
-496.008
-475.51
-451.865
-425.226
-395.781
-363.764
-329.447
-293.152
-255.24
-216.114
-176.211
-135.996
-95.9503
-56.5631
-18.318
-427.23
-424.475
-418.975
-410.756
-399.856
-386.332
-370.258
-351.733
-330.882
-307.86
-282.852
-256.075
-227.784
-198.26
-167.819
-136.798
-105.555
-74.4605
-43.8899
-14.2131
-331.152
-329
-324.705
-318.288
-309.783
-299.237
-286.711
-272.287
-256.067
-238.173
-218.754
-197.982
-176.053
-153.19
-129.634
-105.647
-81.5026
-57.4852
-33.8806
-10.9712
-254.943
-253.274
-249.946
-244.974
-238.388
-230.225
-220.536
-209.387
-196.86
-183.051
-168.077
-152.073
-135.192
-117.604
-99.4967
-81.0692
-62.5311
-44.0985
-25.9884
-8.41521
-194.541
-193.259
-190.704
-186.89
-181.837
-175.579
-168.155
-159.618
-150.031
-139.471
-128.029
-115.809
-102.928
-89.5173
-75.7186
-61.6836
-47.5713
-33.5445
-19.7672
-6.40049
-146.58
-145.61
-143.675
-140.786
-136.962
-132.228
-126.614
-120.162
-112.92
-104.949
-96.3179
-87.1051
-77.4002
-67.302
-56.9173
-46.3599
-35.7487
-25.2053
-14.852
-4.80884
-108.268
-107.548
-106.112
-103.97
-101.135
-97.6251
-93.466
-88.6878
-83.3282
-77.4315
-71.0495
-64.2415
-57.0736
-49.6188
-41.9561
-34.1692
-26.3454
-18.5737
-10.9438
-3.54332
-77.2672
-76.7515
-75.7234
-74.1894
-72.1596
-69.6479
-66.6722
-63.255
-59.4234
-55.2098
-50.6514
-45.7908
-40.6755
-35.3577
-29.8936
-24.3427
-18.7672
-13.2301
-7.7949
-2.52373
-51.6017
-51.2563
-50.5679
-49.5408
-48.1819
-46.5008
-44.5098
-42.2239
-39.6618
-36.845
-33.7988
-30.5518
-27.1357
-23.5855
-19.9387
-16.235
-12.5156
-8.82249
-5.19784
-1.68286
-29.5617
-29.3635
-28.9684
-28.3789
-27.5992
-26.6347
-25.4926
-24.1816
-22.7125
-21.0978
-19.3519
-17.4914
-15.5344
-13.501
-11.4127
-9.29222
-7.16304
-5.04919
-2.9747
-0.963082
-9.62432
-9.55972
-9.43096
-9.23888
-8.98482
-8.67058
-8.29849
-7.87145
-7.39294
-6.86706
-6.29854
-5.69275
-5.05564
-4.39372
-3.71399
-3.02383
-2.3309
-1.64301
-0.967958
-0.313382
)
;

boundaryField
{
    topWall
    {
        type            calculated;
        value           uniform 0;
    }
    bottomWall
    {
        type            calculated;
        value           nonuniform List<scalar> 
20
(
-327921
-328241
-328899
-329930
-331393
-333372
-335985
-339397
-343835
-349615
-357183
-367187
-380604
-398992
-425097
-464498
-530796
-663377
-994183
-1.99453e+06
)
;
    }
    sideWallL
    {
        type            symmetry;
    }
    sideWallR
    {
        type            calculated;
        value           nonuniform List<scalar> 
45
(
-1.23096e+06
-310042
-109169
-50322.3
-28265.7
-18018.1
-12415.5
-8987.56
-6723.25
-5145.5
-4002.92
-3151.48
-2503.09
-2001.04
-1607.27
-1295.31
-1046.26
-846.245
-684.894
-554.312
-448.396
-362.369
-292.452
-235.628
-189.47
-152.012
-121.659
-97.1067
-77.2872
-61.3262
-48.5057
-38.2363
-30.0343
-23.5032
-18.318
-14.2131
-10.9712
-8.41521
-6.40049
-4.80884
-3.54332
-2.52373
-1.68286
-0.963082
-0.313382
)
;
    }
    frontAndBack
    {
        type            empty;
    }
}


// ************************************************************************* //
