/*--------------------------------*- C++ -*----------------------------------*\
  =========                 |
  \\      /  F ield         | OpenFOAM: The Open Source CFD Toolbox
   \\    /   O peration     | Website:  https://openfoam.org
    \\  /    A nd           | Version:  7
     \\/     M anipulation  |
\*---------------------------------------------------------------------------*/
FoamFile
{
    version     2.0;
    format      ascii;
    class       volScalarField;
    location    "36";
    object      gradTx;
}
// * * * * * * * * * * * * * * * * * * * * * * * * * * * * * * * * * * * * * //

dimensions      [0 -1 0 1 0 0 0];

internalField   nonuniform List<scalar> 
900
(
-80.0185
-244.405
-422.187
-623.486
-860.383
-1148.07
-1506.45
-1962.58
-2554.38
-3336.87
-4393.07
-5855.22
-7951.29
-11123.4
-16376.5
-26424.6
-49719.6
-115847
-332788
-1.05282e+06
-208.15
-635.851
-1098.69
-1623.3
-2241.64
-2994.15
-3934.26
-5135.22
-6700.78
-8782.87
-11612
-15553
-21213.4
-29670.1
-42978.8
-65388.1
-106261
-186018
-337124
-552913
-316.508
-966.578
-1669.16
-2463.93
-3398.25
-4531.65
-5942.16
-7735.72
-10060.5
-13129.5
-17258.5
-22928.9
-30897.6
-42390.3
-59432.5
-85365.1
-125372
-185726
-266591
-338354
-414.01
-1263.57
-2179.34
-3210.91
-4416.8
-5869.4
-7661.81
-9917.44
-12803.9
-16553.7
-21494.8
-28096.8
-37037.1
-49288.2
-66205.3
-89515.8
-120895
-160340
-202025
-228079
-491.575
-1499.07
-2581.23
-3793.35
-5199.62
-6877.81
-8925.37
-11467.5
-14667.8
-18742.9
-23980.3
-30761.2
-39580.9
-51054.1
-65865.9
-84577.9
-107123
-131758
-153505
-163396
-546.711
-1665.61
-2862.43
-4194.11
-5725.52
-7533.31
-9710.62
-12372.7
-15663.6
-19763.4
-24895.2
-31327.9
-39368.1
-49325.3
-61422.5
-75606
-91205.4
-106449
-118066
-121700
-579.713
-1764.3
-3025.58
-4418.8
-6005.57
-7856.66
-10055.2
-12699.6
-15906.7
-19813.6
-24575.6
-30359
-37320.1
-45560.8
-55048.6
-65484.4
-76123.5
-85603.2
-91941.6
-92993.8
-592.366
-1800.81
-3081.29
-4484.9
-6067.32
-7890.63
-10024.9
-12549.3
-15552.4
-19129.9
-23379.3
-28387.5
-34208.3
-40824.6
-48090.7
-55656.9
-62891.2
-68845
-72345.3
-72303.9
-587.394
-1783.67
-3045.02
-4416.84
-5947.47
-7689.02
-9697.9
-12034.5
-14761.7
-17941
-21625.5
-25847.9
-30601
-35810.5
-41299.5
-46751.1
-51682.4
-55460.1
-57389.5
-56899.8
-568.033
-1722.93
-2934.66
-4242.24
-5686.16
-7308.62
-9153.18
-11263.7
-13682
-16443.5
-19570.6
-23062.6
-26880.9
-30932.2
-35048.2
-38970.2
-42347.9
-44764.8
-45805.3
-45160
-537.67
-1629.03
-2768.6
-3988.9
-5322.85
-6803.51
-8463.3
-10332.5
-12436.9
-14793.5
-17405.3
-20253.1
-23286.5
-26412.9
-29488.2
-32313.1
-34639.3
-36193.8
-36724.3
-36058.4
-499.565
-1511.97
-2564.2
-3682.65
-4893.37
-6221.5
-7690.28
-9319.58
-11123.5
-13107.1
-15261.9
-17561.1
-19952.5
-22354.1
-24649.3
-26689
-28299.2
-29300.8
-29537.9
-28912.2
-456.653
-1380.7
-2336.85
-3346.03
-4428.33
-5602.32
-6884.06
-8285.68
-9813.4
-11465
-13226.5
-15068.9
-16944.7
-18784.7
-20498.3
-21975.4
-23095.1
-23738.7
-23808.6
-23247.9
-411.434
-1242.8
-2099.46
-2997.65
-3952.47
-4977.26
-6082.64
-7275.29
-8556.38
-9919.68
-11349.4
-12817.9
-14284.1
-15692.3
-16973
-18046.1
-18827.4
-19237.8
-19215.4
-18726.7
-365.929
-1104.36
-1862.32
-2652.07
-3484.74
-4369.6
-5313.29
-6318.83
-7384.37
-8501.89
-9655.8
-10821.6
-11965.1
-13042.4
-14001.1
-14783.1
-15329.6
-15587.6
-15517.3
-15099
-321.684
-970.037
-1633.13
-2320.07
-3038.8
-3795.56
-4594.19
-5435.31
-6315.51
-7226.36
-8153.57
-9076.28
-9966.85
-10791.2
-11510
-12081.5
-12464.3
-12622.8
-12531
-12177.4
-279.813
-843.136
-1417.35
-2009.05
-2623.77
-3265.51
-3936.17
-4634.98
-5357.83
-6096.68
-6839.05
-7567.69
-8260.6
-8891.63
-9431.6
-9850.2
-10118.6
-10212.3
-10114.4
-9818.31
-241.048
-725.827
-1218.48
-1723.64
-2245.05
-2785.11
-3344.45
-3921.54
-4512.15
-5109.04
-5701.63
-6275.94
-6814.73
-7298.08
-7704.34
-8011.64
-8199.64
-8251.62
-8156.48
-7910.37
-205.815
-619.342
-1038.41
-1466.2
-1905.12
-2356.47
-2820.09
-3294.08
-3774.46
-4254.93
-4726.74
-5178.71
-5597.45
-5967.89
-6274.03
-6500.03
-6631.53
-6657.02
-6569.2
-6365.94
-174.289
-524.172
-877.845
-1237.41
-1604.31
-1979.11
-2361.21
-2748.61
-3137.72
-3523.22
-3897.98
-4253.18
-4578.49
-4862.54
-5093.53
-5259.99
-5351.74
-5360.83
-5282.45
-5115.5
-146.463
-440.257
-736.548
-1036.65
-1341.36
-1650.76
-1964.01
-2279.19
-2593.18
-2901.54
-3198.57
-3477.34
-3729.95
-3947.85
-4122.33
-4245.08
-4308.87
-4308.19
-4239.86
-4103.42
-122.198
-367.143
-613.653
-862.492
-1114.01
-1368
-1623.53
-1878.85
-2131.3
-2377.25
-2612.18
-2830.68
-3026.73
-3193.92
-3325.83
-3416.43
-3460.58
-3454.44
-3395.93
-3284.93
-101.263
-304.114
-507.874
-712.929
-919.345
-1126.74
-1334.21
-1540.18
-1742.45
-1938.08
-2123.49
-2294.52
-2446.58
-2574.87
-2674.66
-2741.58
-2771.95
-2763.12
-2713.7
-2623.79
-83.3766
-250.3
-417.685
-585.666
-754.132
-922.632
-1090.3
-1255.81
-1417.33
-1572.5
-1718.53
-1852.2
-1970.04
-2068.47
-2143.99
-2193.43
-2214.18
-2204.37
-2163.12
-2090.6
-68.2298
-204.757
-341.449
-478.284
-615.05
-751.281
-886.199
-1018.68
-1147.21
-1269.96
-1384.71
-1489.02
-1580.26
-1655.74
-1712.91
-1749.45
-1763.5
-1753.75
-1719.65
-1661.39
-55.5074
-166.525
-277.52
-388.379
-498.844
-608.465
-716.561
-822.191
-924.148
-1020.96
-1110.94
-1192.2
-1262.75
-1320.61
-1363.89
-1390.89
-1400.3
-1391.2
-1363.24
-1316.63
-44.9026
-134.671
-224.309
-313.652
-402.431
-490.233
-576.473
-660.378
-740.981
-817.129
-887.509
-950.692
-1005.18
-1049.5
-1082.24
-1102.2
-1108.41
-1100.26
-1077.51
-1040.37
-36.1257
-108.32
-180.326
-251.962
-322.968
-392.975
-461.493
-527.889
-591.396
-651.113
-706.031
-755.06
-797.08
-830.986
-855.754
-870.497
-874.531
-867.425
-849.042
-819.564
-28.9106
-86.6659
-144.211
-201.364
-257.885
-313.457
-367.669
-420.012
-469.88
-516.571
-559.312
-597.277
-629.625
-655.536
-674.256
-685.142
-687.704
-681.644
-666.883
-643.58
-23.0174
-68.985
-114.742
-160.119
-204.902
-248.82
-291.537
-332.647
-371.67
-408.065
-441.24
-470.57
-495.426
-515.199
-529.335
-537.367
-538.946
-533.865
-522.084
-503.735
-18.2334
-54.6365
-90.8425
-126.698
-162.017
-196.575
-230.098
-262.263
-292.694
-320.974
-346.652
-369.257
-388.317
-403.382
-414.044
-419.966
-420.898
-416.698
-407.347
-392.956
-14.3729
-43.0611
-71.572
-99.7714
-127.502
-154.579
-180.78
-205.85
-229.498
-251.403
-271.221
-288.598
-303.181
-314.639
-322.671
-327.033
-327.547
-324.116
-316.734
-305.492
-11.2757
-33.7767
-56.1229
-78.1999
-99.8768
-121.002
-141.398
-160.865
-179.178
-196.089
-211.339
-224.662
-235.795
-244.492
-250.535
-253.744
-253.995
-251.22
-245.423
-236.675
-8.80505
-26.3721
-43.8072
-61.0145
-77.8862
-94.2997
-110.115
-125.176
-139.307
-152.321
-164.021
-174.209
-182.687
-189.276
-193.814
-196.173
-196.263
-194.039
-189.508
-182.728
-6.8455
-20.5003
-34.0449
-47.3998
-60.4776
-73.18
-85.397
-97.0061
-107.874
-117.857
-126.808
-134.577
-141.018
-145.999
-149.402
-151.134
-151.131
-149.363
-145.838
-140.602
-5.30043
-15.8714
-26.3515
-36.676
-46.7743
-56.5686
-65.9726
-74.8916
-83.2231
-90.8588
-97.6872
-103.596
-108.479
-112.237
-114.785
-116.055
-116.002
-114.606
-111.876
-107.847
-4.08978
-12.2449
-20.3261
-28.281
-36.0533
-43.5815
-50.7984
-57.6309
-64.0009
-69.8263
-75.0233
-79.5088
-83.2032
-86.0339
-87.9389
-88.8694
-88.7934
-87.6979
-85.5903
-82.4992
-3.14781
-9.42372
-15.6399
-21.7545
-27.7228
-33.4965
-39.0235
-44.2475
-49.109
-53.546
-57.4955
-60.8957
-63.6877
-65.8182
-67.2418
-67.9234
-67.8405
-66.9844
-65.3618
-62.9951
-2.42111
-7.24749
-12.0259
-16.7231
-21.3037
-25.7299
-29.9611
-33.9543
-37.664
-41.0435
-44.0454
-46.6236
-48.7346
-50.3391
-51.4039
-51.9038
-51.8227
-51.1552
-49.9071
-48.0956
-1.86675
-5.58756
-9.27
-12.8875
-16.4121
-19.8143
-23.0624
-26.1234
-28.9626
-31.5443
-33.8332
-35.7945
-37.396
-38.6086
-39.4081
-39.7761
-39.7013
-39.1802
-38.2178
-36.8275
-1.45078
-4.34211
-7.20258
-10.0109
-12.7449
-15.3812
-17.8951
-20.2609
-22.4519
-24.441
-26.201
-27.7059
-28.9315
-29.8561
-30.4618
-30.7352
-30.6682
-30.2586
-29.5106
-28.4347
-1.14683
-3.43216
-5.69231
-7.91001
-10.0674
-12.1456
-14.1252
-15.9857
-17.7062
-19.2657
-20.6431
-21.8185
-22.7734
-23.4912
-23.9585
-24.1653
-24.1058
-23.7787
-23.1873
-22.3404
-0.935114
-2.79835
-4.64048
-6.44711
-8.20335
-9.89373
-11.5022
-13.0122
-14.4068
-15.6689
-16.782
-17.73
-18.4984
-19.0742
-19.4469
-19.6088
-19.5555
-19.2863
-18.8042
-18.1161
-0.801492
-2.39835
-3.97674
-5.52408
-7.02744
-8.47343
-9.84824
-11.1377
-12.3273
-13.4027
-14.3499
-15.1555
-15.8071
-16.2942
-16.6079
-16.7422
-16.6933
-16.4609
-16.0477
-15.4597
-0.736897
-2.20499
-3.6559
-5.07795
-6.45913
-7.7871
-9.04911
-10.2321
-11.3229
-12.3083
-13.1756
-13.9125
-14.5081
-14.9525
-15.238
-15.3591
-15.3125
-15.098
-14.7181
-14.1783
)
;

boundaryField
{
    topWall
    {
        type            calculated;
        value           nonuniform List<scalar> 
20
(
-0.736897
-2.20499
-3.6559
-5.07795
-6.45913
-7.7871
-9.04911
-10.2321
-11.3229
-12.3083
-13.1756
-13.9125
-14.5081
-14.9525
-15.238
-15.3591
-15.3125
-15.098
-14.7181
-14.1783
)
;
    }
    bottomWall
    {
        type            calculated;
        value           nonuniform List<scalar> 
20
(
-80.0185
-244.405
-422.187
-623.486
-860.383
-1148.07
-1506.45
-1962.58
-2554.38
-3336.87
-4393.07
-5855.22
-7951.29
-11123.4
-16376.5
-26424.6
-49719.6
-115847
-332788
-1.05282e+06
)
;
    }
    sideWallL
    {
        type            symmetry;
    }
    sideWallR
    {
        type            calculated;
        value           nonuniform List<scalar> 
45
(
-1.60547e+06
-670683
-365306
-234005
-164016
-120943
-91944.1
-71280.8
-55993.9
-44387.8
-35411.9
-28376.1
-22806
-18363.7
-14801.8
-11934.6
-9620.52
-7749.58
-6235.54
-5010
-4018.29
-3216.42
-2568.82
-2046.61
-1626.3
-1288.73
-1018.25
-802.095
-629.828
-492.946
-384.523
-298.924
-231.578
-178.786
-137.565
-105.514
-80.7128
-61.6295
-47.052
-36.0276
-27.8166
-21.8543
-17.7217
-15.1229
-13.8693
)
;
    }
    frontAndBack
    {
        type            empty;
    }
}


// ************************************************************************* //
