/*--------------------------------*- C++ -*----------------------------------*\
  =========                 |
  \\      /  F ield         | OpenFOAM: The Open Source CFD Toolbox
   \\    /   O peration     | Website:  https://openfoam.org
    \\  /    A nd           | Version:  7
     \\/     M anipulation  |
\*---------------------------------------------------------------------------*/
FoamFile
{
    version     2.0;
    format      ascii;
    class       volScalarField;
    location    "36";
    object      rhoc;
}
// * * * * * * * * * * * * * * * * * * * * * * * * * * * * * * * * * * * * * //

dimensions      [1 -3 0 0 0 0 0];

internalField   nonuniform List<scalar> 
900
(
0.000218144
0.00021762
0.000216547
0.000214869
0.0002125
0.000209321
0.000205165
0.000199819
0.000193007
0.00018438
0.000173507
0.000159872
0.000142885
0.00012194
9.65701e-05
6.69077e-05
3.51501e-05
9.21169e-06
2.60927e-07
3.42898e-13
2.70958e-06
2.68841e-06
2.64536e-06
2.579e-06
2.48727e-06
2.3676e-06
2.21717e-06
2.03331e-06
1.81433e-06
1.56069e-06
1.27682e-06
9.73464e-07
6.69993e-07
3.95101e-07
1.82226e-07
5.53173e-08
7.71705e-09
2.13852e-10
1.26614e-13
1.92476e-21
4.4235e-08
4.36197e-08
4.23803e-08
4.05019e-08
3.79694e-08
3.47777e-08
3.0946e-08
2.65384e-08
2.16886e-08
1.66239e-08
1.16768e-08
7.26215e-09
3.79377e-09
1.53085e-09
4.15047e-10
5.92517e-11
2.84047e-12
1.90709e-14
3.09632e-18
5.11938e-25
7.09382e-10
6.94754e-10
6.65615e-10
6.22297e-10
5.65528e-10
4.96708e-10
4.1824e-10
3.33837e-10
2.48669e-10
1.691e-10
1.01748e-10
5.17745e-11
2.08346e-11
5.98796e-12
1.04835e-12
8.66528e-14
2.23024e-15
9.06811e-18
2.07703e-21
1.11025e-26
1.12731e-11
1.09637e-11
1.03547e-11
9.46732e-12
8.33796e-12
7.02244e-12
5.59898e-12
4.16741e-12
2.84092e-12
1.72772e-12
9.03784e-13
3.86364e-13
1.25496e-13
2.78841e-14
3.63692e-15
2.22696e-16
4.64209e-18
2.13307e-20
1.35426e-23
1.44095e-27
1.86134e-13
1.79822e-13
1.67537e-13
1.4998e-13
1.28259e-13
1.03903e-13
7.88166e-14
5.51083e-14
3.4772e-14
1.92438e-14
8.98913e-15
3.3645e-15
9.40095e-16
1.78092e-16
2.00806e-17
1.13429e-18
2.58758e-20
1.89173e-22
3.93569e-25
4.28962e-28
3.36056e-15
3.22742e-15
2.97095e-15
2.61088e-15
2.17658e-15
1.70577e-15
1.24123e-15
8.24887e-16
4.89889e-16
2.52679e-16
1.09046e-16
3.75085e-17
9.6561e-18
1.71662e-18
1.90616e-19
1.17403e-20
3.54073e-22
4.78219e-24
3.1107e-26
1.98072e-28
6.96898e-17
6.66081e-17
6.0724e-17
5.25845e-17
4.29716e-17
3.28338e-17
2.31673e-17
1.48514e-17
8.46984e-18
4.18372e-18
1.73036e-18
5.74455e-19
1.45342e-19
2.63413e-20
3.18742e-21
2.39569e-22
1.05666e-23
2.73595e-25
4.92348e-27
1.18065e-28
1.73622e-18
1.65379e-18
1.49748e-18
1.28368e-18
1.03511e-18
7.78163e-19
5.38959e-19
3.38706e-19
1.8947e-19
9.21292e-20
3.78308e-20
1.26744e-20
3.32924e-21
6.56199e-22
9.28571e-23
9.09989e-24
6.11261e-25
2.96844e-26
1.28172e-27
8.24818e-29
5.40198e-20
5.13596e-20
4.63372e-20
3.95175e-20
3.16667e-20
2.36472e-20
1.62793e-20
1.01923e-20
5.7077e-21
2.80244e-21
1.17863e-21
4.13564e-22
1.17681e-22
2.64035e-23
4.56357e-24
6.0168e-25
6.17235e-26
5.34615e-27
4.79666e-28
6.39068e-29
2.16575e-21
2.0585e-21
1.85644e-21
1.58297e-21
1.2694e-21
9.50342e-22
6.58031e-22
4.16565e-22
2.378e-22
1.20484e-22
5.32281e-23
2.01229e-23
6.39152e-24
1.67975e-24
3.62524e-25
6.47812e-26
9.95594e-27
1.44238e-27
2.34114e-28
5.31047e-29
1.14494e-22
1.08954e-22
9.85153e-23
8.43804e-23
6.81483e-23
5.15764e-23
3.62948e-23
2.35269e-23
1.38969e-23
7.39109e-24
3.49529e-24
1.45197e-24
5.24495e-25
1.63874e-25
4.44531e-26
1.06791e-26
2.38027e-27
5.36481e-28
1.38641e-28
4.63302e-29
8.10003e-24
7.72739e-24
7.02382e-24
6.06745e-24
4.96231e-24
3.82318e-24
2.75766e-24
1.84884e-24
1.14294e-24
6.46073e-25
3.31263e-25
1.53041e-25
6.34782e-26
2.36859e-26
8.04111e-27
2.5487e-27
7.89917e-28
2.56455e-28
9.44368e-29
4.18452e-29
7.72369e-25
7.39484e-25
6.77168e-25
5.91903e-25
4.92379e-25
3.88296e-25
2.88952e-25
2.0185e-25
1.31643e-25
7.97363e-26
4.4663e-26
2.30827e-26
1.10211e-26
4.89506e-27
2.05351e-27
8.35371e-28
3.42556e-28
1.48491e-28
7.11678e-29
3.87559e-29
9.93577e-26
9.55504e-26
8.82998e-26
7.82936e-26
6.64626e-26
5.38643e-26
4.15433e-26
3.03874e-26
2.10115e-26
1.36978e-26
8.40826e-27
4.86452e-27
2.66422e-27
1.39423e-27
7.08069e-28
3.56878e-28
1.83571e-28
9.92185e-29
5.77006e-29
3.65646e-29
1.718e-26
1.66052e-26
1.55044e-26
1.39699e-26
1.21287e-26
1.0128e-26
8.11822e-27
6.2344e-27
4.58012e-27
3.21681e-27
2.16162e-27
1.39377e-27
8.67276e-28
5.2567e-28
3.14452e-28
1.88717e-28
1.1569e-28
7.36678e-29
4.9337e-29
3.49755e-29
3.96282e-27
3.85099e-27
3.63545e-27
3.33179e-27
2.96169e-27
2.55093e-27
2.12676e-27
1.71502e-27
1.33735e-27
1.00906e-27
7.38069e-28
5.25191e-28
3.65577e-28
2.50852e-28
1.71321e-28
1.17729e-28
8.22957e-29
5.90794e-29
4.38615e-29
3.38041e-29
1.20375e-27
1.17616e-27
1.12264e-27
1.04643e-27
9.52089e-28
8.45179e-28
7.31781e-28
6.1796e-28
5.09196e-28
4.09887e-28
3.23008e-28
2.49997e-28
1.9088e-28
1.44585e-28
1.09354e-28
8.31532e-29
6.39923e-29
5.01243e-29
4.0132e-29
3.29296e-29
4.71247e-28
4.62796e-28
4.46307e-28
4.22588e-28
3.92796e-28
3.58376e-28
3.20958e-28
2.82248e-28
2.43885e-28
2.07317e-28
1.73691e-28
1.43783e-28
1.17983e-28
9.63333e-29
7.85969e-29
6.43565e-29
5.31047e-29
4.43191e-29
3.75146e-29
3.22708e-29
2.3025e-28
2.27121e-28
2.20983e-28
2.12073e-28
2.00739e-28
1.87419e-28
1.72629e-28
1.56925e-28
1.40876e-28
1.25021e-28
1.09832e-28
9.56896e-29
8.28606e-29
7.1496e-29
6.16398e-29
5.32483e-29
4.62155e-29
4.03977e-29
3.56357e-29
3.17711e-29
1.34951e-28
1.33591e-28
1.30911e-28
1.26991e-28
1.21951e-28
1.15945e-28
1.09157e-28
1.01797e-28
9.40845e-29
8.6244e-29
7.84867e-29
7.10004e-29
6.39396e-29
5.74195e-29
5.15135e-29
4.62562e-29
4.16485e-29
3.76654e-29
3.42638e-29
3.13902e-29
9.11018e-29
9.04282e-29
8.90964e-29
8.71367e-29
8.4595e-29
8.15319e-29
7.80222e-29
7.41525e-29
7.00186e-29
6.57216e-29
6.1363e-29
5.70398e-29
5.28397e-29
4.88371e-29
4.50902e-29
4.16405e-29
3.85127e-29
3.57165e-29
3.32492e-29
3.10988e-29
6.83423e-29
6.79725e-29
6.72395e-29
6.61558e-29
6.47409e-29
6.30212e-29
6.10297e-29
5.88058e-29
5.63948e-29
5.38461e-29
5.12118e-29
4.85443e-29
4.58942e-29
4.33081e-29
4.08264e-29
3.84825e-29
3.63018e-29
3.43016e-29
3.24917e-29
3.08755e-29
5.53722e-29
5.51525e-29
5.47159e-29
5.40683e-29
5.32186e-29
5.21791e-29
5.09657e-29
4.95978e-29
4.80983e-29
4.64931e-29
4.48104e-29
4.308e-29
4.13319e-29
3.95954e-29
3.78976e-29
3.62628e-29
3.47118e-29
3.32609e-29
3.19223e-29
3.07041e-29
4.74352e-29
4.72964e-29
4.70204e-29
4.66099e-29
4.60692e-29
4.54047e-29
4.46245e-29
4.37387e-29
4.27597e-29
4.1702e-29
4.05816e-29
3.9416e-29
3.82238e-29
3.70235e-29
3.58335e-29
3.46709e-29
3.35512e-29
3.2488e-29
3.14922e-29
3.05725e-29
4.23096e-29
4.22179e-29
4.20353e-29
4.17632e-29
4.1404e-29
4.09609e-29
4.04385e-29
3.98423e-29
3.91795e-29
3.84585e-29
3.76888e-29
3.68813e-29
3.60477e-29
3.52001e-29
3.43508e-29
3.35119e-29
3.26949e-29
3.19099e-29
3.11663e-29
3.04715e-29
3.88631e-29
3.88005e-29
3.86755e-29
3.84891e-29
3.82425e-29
3.79377e-29
3.75771e-29
3.71642e-29
3.67031e-29
3.6199e-29
3.56579e-29
3.50867e-29
3.44929e-29
3.38847e-29
3.32705e-29
3.26588e-29
3.20579e-29
3.14755e-29
3.09189e-29
3.03941e-29
3.64747e-29
3.64308e-29
3.63431e-29
3.62122e-29
3.60389e-29
3.58241e-29
3.55697e-29
3.52775e-29
3.49502e-29
3.45911e-29
3.42042e-29
3.37938e-29
3.33652e-29
3.29237e-29
3.24753e-29
3.20259e-29
3.15816e-29
3.11481e-29
3.07308e-29
3.03348e-29
3.4782e-29
3.47506e-29
3.4688e-29
3.45944e-29
3.44703e-29
3.43165e-29
3.41339e-29
3.39239e-29
3.36882e-29
3.3429e-29
3.31488e-29
3.28507e-29
3.25382e-29
3.22151e-29
3.18855e-29
3.15537e-29
3.1224e-29
3.09007e-29
3.05879e-29
3.02895e-29
3.35624e-29
3.35397e-29
3.34943e-29
3.34265e-29
3.33366e-29
3.32251e-29
3.30925e-29
3.29399e-29
3.27683e-29
3.25794e-29
3.23747e-29
3.21565e-29
3.19272e-29
3.16893e-29
3.1446e-29
3.12002e-29
3.09551e-29
3.07138e-29
3.04794e-29
3.02549e-29
3.26732e-29
3.26566e-29
3.26234e-29
3.25738e-29
3.25081e-29
3.24265e-29
3.23294e-29
3.22177e-29
3.20919e-29
3.19532e-29
3.18028e-29
3.16423e-29
3.14732e-29
3.12975e-29
3.11174e-29
3.0935e-29
3.07526e-29
3.05725e-29
3.03971e-29
3.02285e-29
3.20193e-29
3.20071e-29
3.19827e-29
3.19462e-29
3.18979e-29
3.18378e-29
3.17664e-29
3.16841e-29
3.15915e-29
3.14893e-29
3.13783e-29
3.12598e-29
3.11348e-29
3.10048e-29
3.08713e-29
3.07358e-29
3.06001e-29
3.04659e-29
3.03348e-29
3.02085e-29
3.15358e-29
3.15268e-29
3.15088e-29
3.14818e-29
3.14461e-29
3.14018e-29
3.1349e-29
3.12882e-29
3.12198e-29
3.11443e-29
3.10623e-29
3.09746e-29
3.08821e-29
3.07858e-29
3.06868e-29
3.05863e-29
3.04854e-29
3.03855e-29
3.02877e-29
3.01934e-29
3.1177e-29
3.11703e-29
3.1157e-29
3.11371e-29
3.11106e-29
3.10778e-29
3.10388e-29
3.09938e-29
3.09432e-29
3.08874e-29
3.08267e-29
3.07618e-29
3.06934e-29
3.06221e-29
3.05487e-29
3.04741e-29
3.03992e-29
3.0325e-29
3.02523e-29
3.0182e-29
3.09103e-29
3.09053e-29
3.08955e-29
3.08807e-29
3.08611e-29
3.08368e-29
3.0808e-29
3.07747e-29
3.07373e-29
3.06959e-29
3.06511e-29
3.06031e-29
3.05524e-29
3.04997e-29
3.04453e-29
3.03901e-29
3.03346e-29
3.02796e-29
3.02256e-29
3.01734e-29
3.0712e-29
3.07083e-29
3.0701e-29
3.06901e-29
3.06756e-29
3.06576e-29
3.06362e-29
3.06116e-29
3.05839e-29
3.05534e-29
3.05202e-29
3.04847e-29
3.04473e-29
3.04083e-29
3.03682e-29
3.03273e-29
3.02863e-29
3.02456e-29
3.02056e-29
3.01669e-29
3.05647e-29
3.0562e-29
3.05566e-29
3.05485e-29
3.05378e-29
3.05244e-29
3.05086e-29
3.04905e-29
3.047e-29
3.04474e-29
3.04229e-29
3.03967e-29
3.03691e-29
3.03403e-29
3.03107e-29
3.02806e-29
3.02503e-29
3.02202e-29
3.01907e-29
3.01621e-29
3.04556e-29
3.04536e-29
3.04496e-29
3.04436e-29
3.04356e-29
3.04258e-29
3.04141e-29
3.04007e-29
3.03856e-29
3.03689e-29
3.03508e-29
3.03315e-29
3.03111e-29
3.02899e-29
3.02681e-29
3.02459e-29
3.02236e-29
3.02014e-29
3.01796e-29
3.01585e-29
3.03751e-29
3.03736e-29
3.03706e-29
3.03662e-29
3.03603e-29
3.0353e-29
3.03444e-29
3.03345e-29
3.03233e-29
3.0311e-29
3.02977e-29
3.02834e-29
3.02684e-29
3.02527e-29
3.02366e-29
3.02203e-29
3.02038e-29
3.01875e-29
3.01714e-29
3.01559e-29
3.03161e-29
3.0315e-29
3.03128e-29
3.03095e-29
3.03052e-29
3.02998e-29
3.02934e-29
3.0286e-29
3.02777e-29
3.02686e-29
3.02587e-29
3.02482e-29
3.02371e-29
3.02255e-29
3.02136e-29
3.02015e-29
3.01893e-29
3.01773e-29
3.01654e-29
3.01539e-29
3.02735e-29
3.02726e-29
3.0271e-29
3.02685e-29
3.02653e-29
3.02612e-29
3.02564e-29
3.02509e-29
3.02447e-29
3.02379e-29
3.02306e-29
3.02227e-29
3.02144e-29
3.02058e-29
3.01969e-29
3.01879e-29
3.01789e-29
3.01699e-29
3.01611e-29
3.01525e-29
3.02433e-29
3.02426e-29
3.02414e-29
3.02395e-29
3.0237e-29
3.02339e-29
3.02303e-29
3.02261e-29
3.02214e-29
3.02162e-29
3.02107e-29
3.02047e-29
3.01984e-29
3.01919e-29
3.01852e-29
3.01783e-29
3.01715e-29
3.01647e-29
3.0158e-29
3.01515e-29
3.02228e-29
3.02223e-29
3.02213e-29
3.02198e-29
3.02178e-29
3.02154e-29
3.02126e-29
3.02093e-29
3.02056e-29
3.02015e-29
3.01971e-29
3.01925e-29
3.01875e-29
3.01824e-29
3.01772e-29
3.01718e-29
3.01665e-29
3.01611e-29
3.01559e-29
3.01509e-29
3.02101e-29
3.02097e-29
3.02088e-29
3.02076e-29
3.0206e-29
3.0204e-29
3.02016e-29
3.01989e-29
3.01958e-29
3.01924e-29
3.01888e-29
3.01849e-29
3.01808e-29
3.01766e-29
3.01722e-29
3.01678e-29
3.01634e-29
3.0159e-29
3.01546e-29
3.01504e-29
3.0204e-29
3.02036e-29
3.02029e-29
3.02018e-29
3.02003e-29
3.01985e-29
3.01964e-29
3.01939e-29
3.01911e-29
3.01881e-29
3.01848e-29
3.01813e-29
3.01776e-29
3.01738e-29
3.01699e-29
3.01659e-29
3.01619e-29
3.01579e-29
3.0154e-29
3.01502e-29
)
;

boundaryField
{
    topWall
    {
        type            zeroGradient;
    }
    bottomWall
    {
        type            zeroGradient;
    }
    sideWallL
    {
        type            symmetry;
    }
    sideWallR
    {
        type            zeroGradient;
    }
    frontAndBack
    {
        type            empty;
    }
}


// ************************************************************************* //
