/*--------------------------------*- C++ -*----------------------------------*\
  =========                 |
  \\      /  F ield         | OpenFOAM: The Open Source CFD Toolbox
   \\    /   O peration     | Website:  https://openfoam.org
    \\  /    A nd           | Version:  7
     \\/     M anipulation  |
\*---------------------------------------------------------------------------*/
FoamFile
{
    version     2.0;
    format      ascii;
    class       volScalarField;
    location    "36";
    object      rhog;
}
// * * * * * * * * * * * * * * * * * * * * * * * * * * * * * * * * * * * * * //

dimensions      [1 -3 0 0 0 0 0];

internalField   nonuniform List<scalar> 
900
(
0.945176
0.943399
0.939754
0.934051
0.925991
0.915148
0.90094
0.882596
0.859106
0.829165
0.791097
0.742784
0.681585
0.604311
0.507323
0.387256
0.244746
0.0994641
0.0112287
4.22894e-06
0.0458463
0.0456228
0.0451663
0.0444578
0.0434683
0.0421584
0.040479
0.0383719
0.0357729
0.0326187
0.0288599
0.0244842
0.019555
0.01427
0.00903229
0.00449463
0.00143103
0.000179111
2.36294e-06
5.62654e-11
0.0040033
0.00397056
0.00390404
0.00380171
0.00366065
0.0034773
0.00324784
0.00296896
0.00263904
0.00225995
0.00183971
0.00139558
0.000956921
0.000564943
0.000264812
8.54735e-05
1.45815e-05
7.82178e-07
4.57277e-09
4.00637e-13
0.000367742
0.000363299
0.000354332
0.000340696
0.000322215
0.000298744
0.00027026
0.000237003
0.000199642
0.000159486
0.000118648
8.00559e-05
4.7108e-05
2.27728e-05
8.23548e-06
1.916e-06
2.23716e-07
8.70274e-09
5.96973e-11
3.89793e-14
3.353e-05
3.29885e-05
3.19034e-05
3.02738e-05
2.81054e-05
2.54194e-05
2.22649e-05
1.87333e-05
1.49723e-05
1.11932e-05
7.66156e-06
4.65904e-06
2.41123e-06
9.98046e-07
3.0166e-07
5.82413e-08
5.91404e-09
2.41798e-10
2.94718e-12
1.10844e-14
3.09317e-06
3.03107e-06
2.90758e-06
2.72442e-06
2.4851e-06
2.19582e-06
1.8667e-06
1.51272e-06
1.15406e-06
8.15073e-07
5.20962e-07
2.92196e-07
1.37893e-07
5.16938e-08
1.42362e-08
2.59468e-09
2.74174e-10
1.4508e-11
3.50739e-13
5.209e-15
2.97273e-07
2.90262e-07
2.76414e-07
2.56114e-07
2.30032e-07
1.99205e-07
1.65118e-07
1.29727e-07
9.5369e-08
6.45027e-08
3.92563e-08
2.08844e-08
9.35299e-09
3.35935e-09
9.10516e-10
1.73129e-10
2.13504e-11
1.60549e-12
7.53519e-14
3.20234e-15
3.06613e-08
2.985e-08
2.8257e-08
2.59457e-08
2.30187e-08
1.96241e-08
1.59585e-08
1.22595e-08
8.78634e-09
5.78164e-09
3.42304e-09
1.77777e-09
7.84955e-10
2.8377e-10
8.04366e-11
1.70841e-11
2.61719e-12
2.8686e-13
2.44065e-14
2.30602e-15
3.48943e-09
3.38982e-09
3.19523e-09
2.91517e-09
2.56454e-09
2.16383e-09
1.73874e-09
1.31852e-09
9.32806e-10
6.06962e-10
3.56977e-10
1.85856e-10
8.36047e-11
3.16273e-11
9.78615e-12
2.41827e-12
4.72307e-13
7.46403e-14
1.06176e-14
1.83409e-15
4.48967e-10
4.35614e-10
4.0962e-10
3.72429e-10
3.26237e-10
2.73969e-10
2.1915e-10
1.65618e-10
1.17071e-10
7.64765e-11
4.55204e-11
2.42935e-11
1.14227e-11
4.64887e-12
1.61268e-12
4.72878e-13
1.18084e-13
2.61554e-14
5.7364e-15
1.5573e-15
6.66226e-11
6.46217e-11
6.0735e-11
5.51934e-11
4.83417e-11
4.06286e-11
3.25808e-11
2.4756e-11
1.76752e-11
1.17437e-11
7.1827e-12
3.99714e-12
2.00053e-12
8.91399e-13
3.5147e-13
1.22913e-13
3.88292e-14
1.16255e-14
3.63881e-15
1.38247e-15
1.15727e-11
1.12317e-11
1.05698e-11
9.62728e-12
8.46332e-12
7.15399e-12
5.78723e-12
4.4548e-12
3.24151e-12
2.21322e-12
1.40687e-12
8.26166e-13
4.45171e-13
2.19164e-13
9.86373e-14
4.09592e-14
1.6073e-14
6.24905e-15
2.59946e-15
1.26607e-15
2.37608e-12
2.30922e-12
2.17939e-12
1.99435e-12
1.76547e-12
1.50723e-12
1.23625e-12
9.69872e-13
7.24167e-13
5.11908e-13
3.40812e-13
2.12737e-13
1.24135e-13
6.77151e-14
3.47067e-14
1.69344e-14
8.06577e-15
3.9049e-15
2.02689e-15
1.18552e-15
5.79408e-13
5.64236e-13
5.34739e-13
4.92595e-13
4.40257e-13
3.80847e-13
3.17955e-13
2.55347e-13
1.96575e-13
1.44565e-13
1.0126e-13
6.74216e-14
4.26693e-14
2.57447e-14
1.49224e-14
8.42842e-15
4.7443e-15
2.74365e-15
1.68533e-15
1.12818e-15
1.67915e-13
1.63929e-13
1.56164e-13
1.45028e-13
1.31119e-13
1.15202e-13
9.81595e-14
8.09313e-14
6.44245e-14
4.942e-14
3.64868e-14
2.59259e-14
1.7763e-14
1.17899e-14
7.64491e-15
4.90637e-15
3.1719e-15
2.10836e-15
1.46891e-15
1.08648e-15
5.76881e-14
5.64804e-14
5.41214e-14
5.0723e-14
4.64496e-14
4.15124e-14
3.61583e-14
3.06541e-14
2.52646e-14
2.02286e-14
1.5735e-14
1.19056e-14
8.78787e-15
6.36044e-15
4.54899e-15
3.24841e-15
2.34488e-15
1.73296e-15
1.32532e-15
1.05565e-15
2.33788e-14
2.29599e-14
2.21393e-14
2.09513e-14
1.94464e-14
1.76901e-14
1.57602e-14
1.37419e-14
1.17225e-14
9.7842e-15
7.99688e-15
6.41211e-15
5.05969e-15
3.94725e-15
3.06331e-15
2.38254e-15
1.87211e-15
1.49747e-15
1.22664e-15
1.03258e-15
1.10927e-14
1.0928e-14
1.06046e-14
1.01339e-14
9.53336e-15
8.82546e-15
8.03735e-15
7.19947e-15
6.34382e-15
5.50177e-15
4.70165e-15
3.96657e-15
3.31279e-15
2.749e-15
2.27664e-15
1.89111e-15
1.58353e-15
1.34273e-15
1.15696e-15
1.01516e-15
6.09403e-15
6.02161e-15
5.87893e-15
5.67031e-15
5.40224e-15
5.08326e-15
4.7238e-15
4.33579e-15
3.93212e-15
3.52587e-15
3.1295e-15
2.75395e-15
2.40794e-15
2.09748e-15
1.82571e-15
1.59314e-15
1.39808e-15
1.23732e-15
1.10673e-15
1.00191e-15
3.81626e-15
3.78108e-15
3.71158e-15
3.60952e-15
3.47753e-15
3.31913e-15
3.13867e-15
2.94124e-15
2.73246e-15
2.51823e-15
2.30441e-15
2.09649e-15
1.89919e-15
1.71627e-15
1.55033e-15
1.40281e-15
1.27404e-15
1.16348e-15
1.06994e-15
9.91791e-16
2.67117e-15
2.65255e-15
2.61569e-15
2.56134e-15
2.49065e-15
2.40519e-15
2.3069e-15
2.19811e-15
2.08146e-15
1.95979e-15
1.83604e-15
1.71308e-15
1.59355e-15
1.47975e-15
1.37352e-15
1.27615e-15
1.18843e-15
1.11064e-15
1.04265e-15
9.84027e-16
2.04553e-15
2.03494e-15
2.01392e-15
1.98283e-15
1.94221e-15
1.89278e-15
1.83548e-15
1.77144e-15
1.70198e-15
1.62855e-15
1.55269e-15
1.47599e-15
1.39997e-15
1.32604e-15
1.25544e-15
1.18914e-15
1.1279e-15
1.07219e-15
1.02223e-15
9.78059e-16
1.67924e-15
1.67284e-15
1.66012e-15
1.64125e-15
1.6165e-15
1.58623e-15
1.55091e-15
1.51112e-15
1.46756e-15
1.42101e-15
1.37232e-15
1.32239e-15
1.27214e-15
1.22244e-15
1.17411e-15
1.12787e-15
1.0843e-15
1.04385e-15
1.00685e-15
9.73465e-16
1.45234e-15
1.44828e-15
1.4402e-15
1.42818e-15
1.41237e-15
1.39295e-15
1.37018e-15
1.34436e-15
1.31588e-15
1.28519e-15
1.25277e-15
1.21915e-15
1.18491e-15
1.1506e-15
1.11676e-15
1.08389e-15
1.05244e-15
1.02277e-15
9.952e-16
9.69927e-16
1.30528e-15
1.3026e-15
1.29725e-15
1.2893e-15
1.27881e-15
1.26588e-15
1.25066e-15
1.23332e-15
1.21408e-15
1.1932e-15
1.17098e-15
1.14775e-15
1.12386e-15
1.09967e-15
1.07555e-15
1.05185e-15
1.0289e-15
1.00698e-15
9.86351e-16
9.67202e-16
1.20646e-15
1.20464e-15
1.20099e-15
1.19557e-15
1.18839e-15
1.17953e-15
1.16906e-15
1.1571e-15
1.14376e-15
1.12921e-15
1.11364e-15
1.09725e-15
1.08027e-15
1.06295e-15
1.04553e-15
1.02826e-15
1.01137e-15
9.95092e-16
9.79614e-16
9.65105e-16
1.13817e-15
1.13689e-15
1.13435e-15
1.13055e-15
1.12553e-15
1.11932e-15
1.11196e-15
1.10353e-15
1.0941e-15
1.08377e-15
1.07267e-15
1.06093e-15
1.04869e-15
1.03614e-15
1.02343e-15
1.01074e-15
9.98246e-16
9.86109e-16
9.7448e-16
9.63494e-16
1.08992e-15
1.08901e-15
1.0872e-15
1.0845e-15
1.08092e-15
1.07649e-15
1.07123e-15
1.06519e-15
1.05842e-15
1.05099e-15
1.04297e-15
1.03446e-15
1.02555e-15
1.01637e-15
1.00703e-15
9.97658e-16
9.88376e-16
9.79308e-16
9.70566e-16
9.62257e-16
1.05526e-15
1.05461e-15
1.0533e-15
1.05135e-15
1.04877e-15
1.04556e-15
1.04176e-15
1.03738e-15
1.03246e-15
1.02706e-15
1.02121e-15
1.01498e-15
1.00845e-15
1.0017e-15
9.94799e-16
9.87849e-16
9.80937e-16
9.74153e-16
9.67584e-16
9.61309e-16
1.03005e-15
1.02957e-15
1.02862e-15
1.0272e-15
1.02531e-15
1.02297e-15
1.02019e-15
1.01699e-15
1.0134e-15
1.00943e-15
1.00514e-15
1.00056e-15
9.95746e-16
9.90753e-16
9.85641e-16
9.80475e-16
9.75322e-16
9.70246e-16
9.65314e-16
9.60584e-16
1.01154e-15
1.01119e-15
1.01049e-15
1.00944e-15
1.00806e-15
1.00634e-15
1.0043e-15
1.00194e-15
9.99293e-16
9.96372e-16
9.93206e-16
9.89824e-16
9.86264e-16
9.82564e-16
9.78769e-16
9.74926e-16
9.71082e-16
9.67287e-16
9.63588e-16
9.60032e-16
9.97856e-16
9.97598e-16
9.97082e-16
9.96311e-16
9.95289e-16
9.9402e-16
9.92511e-16
9.90772e-16
9.88815e-16
9.86656e-16
9.84314e-16
9.81811e-16
9.79172e-16
9.76427e-16
9.73607e-16
9.70747e-16
9.67882e-16
9.65048e-16
9.62279e-16
9.59612e-16
9.87701e-16
9.8751e-16
9.87128e-16
9.86557e-16
9.85801e-16
9.84861e-16
9.83744e-16
9.82457e-16
9.81008e-16
9.79409e-16
9.77674e-16
9.75819e-16
9.73862e-16
9.71825e-16
9.6973e-16
9.67603e-16
9.6547e-16
9.63356e-16
9.61289e-16
9.59293e-16
9.80143e-16
9.80002e-16
9.79719e-16
9.79296e-16
9.78734e-16
9.78038e-16
9.7721e-16
9.76256e-16
9.75183e-16
9.73998e-16
9.72712e-16
9.71337e-16
9.69886e-16
9.68374e-16
9.6682e-16
9.6524e-16
9.63654e-16
9.62081e-16
9.60541e-16
9.59052e-16
9.74513e-16
9.74408e-16
9.74198e-16
9.73884e-16
9.73468e-16
9.72951e-16
9.72338e-16
9.71631e-16
9.70835e-16
9.69958e-16
9.69005e-16
9.67986e-16
9.66911e-16
9.65791e-16
9.64639e-16
9.63467e-16
9.6229e-16
9.61123e-16
9.59978e-16
9.58871e-16
9.70318e-16
9.7024e-16
9.70085e-16
9.69852e-16
9.69543e-16
9.69161e-16
9.68706e-16
9.68182e-16
9.67593e-16
9.66944e-16
9.66239e-16
9.65485e-16
9.64689e-16
9.63861e-16
9.63008e-16
9.62141e-16
9.61269e-16
9.60404e-16
9.59556e-16
9.58734e-16
9.67198e-16
9.6714e-16
9.67025e-16
9.66853e-16
9.66624e-16
9.66341e-16
9.66004e-16
9.65617e-16
9.65181e-16
9.647e-16
9.64179e-16
9.63622e-16
9.63034e-16
9.62422e-16
9.61792e-16
9.61151e-16
9.60507e-16
9.59867e-16
9.5924e-16
9.58632e-16
9.64883e-16
9.64841e-16
9.64755e-16
9.64627e-16
9.64458e-16
9.64249e-16
9.63999e-16
9.63713e-16
9.63391e-16
9.63036e-16
9.62651e-16
9.62239e-16
9.61805e-16
9.61353e-16
9.60888e-16
9.60416e-16
9.5994e-16
9.59468e-16
9.59005e-16
9.58556e-16
9.63174e-16
9.63142e-16
9.63079e-16
9.62984e-16
9.62859e-16
9.62704e-16
9.62519e-16
9.62307e-16
9.62069e-16
9.61806e-16
9.61522e-16
9.61218e-16
9.60898e-16
9.60564e-16
9.60221e-16
9.59872e-16
9.59522e-16
9.59173e-16
9.58832e-16
9.585e-16
9.61921e-16
9.61897e-16
9.6185e-16
9.6178e-16
9.61687e-16
9.61571e-16
9.61434e-16
9.61277e-16
9.611e-16
9.60906e-16
9.60695e-16
9.6047e-16
9.60232e-16
9.59986e-16
9.59732e-16
9.59474e-16
9.59214e-16
9.58957e-16
9.58704e-16
9.58459e-16
9.61013e-16
9.60995e-16
9.6096e-16
9.60907e-16
9.60838e-16
9.60751e-16
9.60649e-16
9.60531e-16
9.60399e-16
9.60254e-16
9.60096e-16
9.59928e-16
9.59751e-16
9.59567e-16
9.59378e-16
9.59185e-16
9.58992e-16
9.588e-16
9.58612e-16
9.58429e-16
9.6037e-16
9.60356e-16
9.60329e-16
9.60289e-16
9.60236e-16
9.6017e-16
9.60092e-16
9.60003e-16
9.59902e-16
9.59792e-16
9.59672e-16
9.59544e-16
9.5941e-16
9.5927e-16
9.59127e-16
9.58981e-16
9.58835e-16
9.58689e-16
9.58546e-16
9.58408e-16
9.59933e-16
9.59922e-16
9.59901e-16
9.5987e-16
9.59828e-16
9.59776e-16
9.59715e-16
9.59644e-16
9.59565e-16
9.59478e-16
9.59384e-16
9.59284e-16
9.59179e-16
9.59069e-16
9.58957e-16
9.58842e-16
9.58728e-16
9.58614e-16
9.58502e-16
9.58394e-16
9.59663e-16
9.59654e-16
9.59636e-16
9.5961e-16
9.59575e-16
9.59532e-16
9.59481e-16
9.59422e-16
9.59356e-16
9.59284e-16
9.59206e-16
9.59123e-16
9.59036e-16
9.58945e-16
9.58851e-16
9.58757e-16
9.58662e-16
9.58567e-16
9.58475e-16
9.58385e-16
9.59533e-16
9.59525e-16
9.59509e-16
9.59485e-16
9.59454e-16
9.59415e-16
9.59369e-16
9.59316e-16
9.59257e-16
9.59191e-16
9.59121e-16
9.59046e-16
9.58967e-16
9.58885e-16
9.58801e-16
9.58716e-16
9.5863e-16
9.58545e-16
9.58461e-16
9.58381e-16
)
;

boundaryField
{
    topWall
    {
        type            calculated;
        value           uniform 0;
    }
    bottomWall
    {
        type            zeroGradient;
    }
    sideWallL
    {
        type            symmetry;
    }
    sideWallR
    {
        type            calculated;
        value           uniform 0;
    }
    frontAndBack
    {
        type            empty;
    }
}


// ************************************************************************* //
