/*--------------------------------*- C++ -*----------------------------------*\
  =========                 |
  \\      /  F ield         | OpenFOAM: The Open Source CFD Toolbox
   \\    /   O peration     | Website:  https://openfoam.org
    \\  /    A nd           | Version:  7
     \\/     M anipulation  |
\*---------------------------------------------------------------------------*/
FoamFile
{
    version     2.0;
    format      ascii;
    class       volScalarField;
    location    "36";
    object      rhois;
}
// * * * * * * * * * * * * * * * * * * * * * * * * * * * * * * * * * * * * * //

dimensions      [1 -3 0 0 0 0 0];

internalField   nonuniform List<scalar> 
900
(
0.873525
0.87265
0.870851
0.868027
0.864018
0.85859
0.851417
0.842055
0.829898
0.814119
0.793582
0.766702
0.731226
0.683856
0.61956
0.530323
0.403729
0.229258
0.0511483
0.000168362
0.137321
0.136874
0.13596
0.134532
0.132522
0.129831
0.126331
0.121857
0.116202
0.109124
0.100344
0.0895805
0.0766055
0.061385
0.0443482
0.0268536
0.0117042
0.00257185
0.000110049
5.07212e-08
0.0240685
0.0239284
0.0236424
0.0231995
0.0225826
0.0217696
0.0207331
0.0194427
0.0178678
0.0159839
0.0137831
0.0112914
0.00859415
0.00586521
0.00338285
0.00148643
0.000410652
4.90223e-05
1.18593e-06
1.50395e-09
0.00417131
0.00413508
0.00406155
0.00394866
0.00379351
0.00359264
0.00334259
0.00304076
0.00268677
0.00228448
0.00184459
0.00138747
0.000944865
0.000557808
0.000266723
9.26154e-05
1.95279e-05
1.86591e-06
5.1848e-08
2.94909e-10
0.000717304
0.000708964
0.000692134
0.000666542
0.000631858
0.000587803
0.000534315
0.000471786
0.000401376
0.000325356
0.000247414
0.000172689
0.000107241
5.66485e-05
2.38362e-05
7.25697e-06
1.39185e-06
1.39498e-07
6.00592e-09
1.23956e-10
0.000124846
0.000123042
0.000119423
0.000113972
0.000106688
9.76074e-05
8.68481e-05
7.46509e-05
6.14308e-05
4.78118e-05
3.46223e-05
2.28127e-05
1.32687e-05
6.5366e-06
2.57881e-06
7.56527e-07
1.50449e-07
1.83938e-08
1.32531e-09
7.39625e-11
2.24823e-05
2.21011e-05
2.13401e-05
2.02044e-05
1.87064e-05
1.68712e-05
1.47442e-05
1.2398e-05
9.93798e-06
7.50165e-06
5.24796e-06
3.33236e-06
1.86945e-06
8.95077e-07
3.50327e-07
1.06532e-07
2.38784e-08
3.80927e-09
4.50657e-10
5.30659e-11
4.28093e-06
4.1996e-06
4.03805e-06
3.79886e-06
3.48693e-06
3.11046e-06
2.68219e-06
2.22029e-06
1.74855e-06
1.29512e-06
8.89222e-07
5.55788e-07
3.09277e-07
1.49213e-07
6.05701e-08
2.00677e-08
5.30483e-09
1.12398e-09
2.06651e-10
4.23905e-11
8.79529e-07
8.61545e-07
8.25962e-07
7.73627e-07
7.05998e-07
6.25338e-07
5.34885e-07
4.38943e-07
3.42759e-07
2.52109e-07
1.72518e-07
1.08226e-07
6.11926e-08
3.06087e-08
1.32968e-08
4.94477e-09
1.57085e-09
4.3798e-10
1.17136e-10
3.62172e-11
1.98472e-07
1.94257e-07
1.85943e-07
1.73773e-07
1.58153e-07
1.39677e-07
1.19159e-07
9.76241e-08
7.62656e-08
5.63301e-08
3.89476e-08
2.49281e-08
1.45937e-08
7.72411e-09
3.66205e-09
1.55087e-09
5.93078e-10
2.12526e-10
7.73276e-11
3.23431e-11
4.99165e-08
4.88509e-08
4.67525e-08
4.3691e-08
3.97776e-08
3.51714e-08
3.00821e-08
2.47661e-08
1.95117e-08
1.46115e-08
1.0323e-08
6.82679e-09
4.19423e-09
2.37965e-09
1.24394e-09
6.02066e-10
2.74606e-10
1.22571e-10
5.69967e-11
2.97704e-11
1.41488e-08
1.38542e-08
1.32748e-08
1.24305e-08
1.13533e-08
1.00873e-08
8.68999e-09
7.22988e-09
5.78273e-09
4.42435e-09
3.22124e-09
2.22082e-09
1.44418e-09
8.84373e-10
5.11233e-10
2.81576e-10
1.50662e-10
8.08889e-11
4.55067e-11
2.79914e-11
4.55444e-09
4.46464e-09
4.28802e-09
4.0307e-09
3.70222e-09
3.31576e-09
2.88814e-09
2.43926e-09
1.99097e-09
1.56513e-09
1.18119e-09
8.53644e-10
5.90115e-10
3.90735e-10
2.49099e-10
1.54542e-10
9.49592e-11
5.92101e-11
3.8506e-11
2.67243e-11
1.67226e-09
1.64194e-09
1.58228e-09
1.49524e-09
1.38391e-09
1.25249e-09
1.10632e-09
9.51703e-10
7.95576e-10
6.44948e-10
5.06212e-10
3.84412e-10
2.82657e-10
2.01856e-10
1.40865e-10
9.7019e-11
6.68653e-11
4.68826e-11
3.39928e-11
2.58018e-11
7.01444e-10
6.90105e-10
6.67761e-10
6.351e-10
5.93181e-10
5.43456e-10
4.87762e-10
4.28279e-10
3.67423e-10
3.07676e-10
2.51376e-10
2.00476e-10
1.56351e-10
1.19672e-10
9.04129e-11
6.79642e-11
5.13341e-11
3.93716e-11
3.09559e-11
2.5119e-11
3.35689e-10
3.31005e-10
3.21759e-10
3.08208e-10
2.90744e-10
2.69906e-10
2.46381e-10
2.20985e-10
1.94638e-10
1.68303e-10
1.42917e-10
1.19309e-10
9.81234e-11
7.97684e-11
6.43972e-11
5.19288e-11
4.21015e-11
3.45439e-11
2.88445e-11
2.46073e-11
1.8243e-10
1.80304e-10
1.76102e-10
1.69925e-10
1.61928e-10
1.52327e-10
1.41397e-10
1.2947e-10
1.16924e-10
1.04164e-10
9.15987e-11
7.96055e-11
6.85045e-11
5.85316e-11
4.98252e-11
4.24262e-11
3.62902e-11
3.13097e-11
2.73394e-11
2.42202e-11
1.1159e-10
1.10539e-10
1.08458e-10
1.0539e-10
1.014e-10
9.65796e-11
9.10478e-11
8.49488e-11
7.84494e-11
7.17333e-11
6.49904e-11
5.84051e-11
5.21436e-11
4.63419e-11
4.10977e-11
3.64668e-11
3.24646e-11
2.90722e-11
2.62457e-11
2.39254e-11
7.58303e-11
7.52695e-11
7.41571e-11
7.25119e-11
7.03635e-11
6.77534e-11
6.47354e-11
6.13765e-11
5.77553e-11
5.39602e-11
5.00853e-11
4.62257e-11
4.24714e-11
3.89022e-11
3.55824e-11
3.2558e-11
2.9856e-11
2.74852e-11
2.54391e-11
2.36996e-11
5.63324e-11
5.60124e-11
5.53767e-11
5.44341e-11
5.31985e-11
5.16897e-11
4.99335e-11
4.79629e-11
4.58168e-11
4.35404e-11
4.11829e-11
3.87956e-11
3.64295e-11
3.4132e-11
3.1945e-11
2.99021e-11
2.8028e-11
2.63377e-11
2.48375e-11
2.35261e-11
4.49766e-11
4.47833e-11
4.43988e-11
4.38274e-11
4.30758e-11
4.21541e-11
4.10752e-11
3.98562e-11
3.85173e-11
3.70829e-11
3.55798e-11
3.4037e-11
3.24844e-11
3.0951e-11
2.9464e-11
2.8047e-11
2.67194e-11
2.54956e-11
2.4385e-11
2.33925e-11
3.79873e-11
3.78649e-11
3.76209e-11
3.72578e-11
3.67789e-11
3.61894e-11
3.54962e-11
3.47085e-11
3.38374e-11
3.28964e-11
3.19011e-11
3.08683e-11
2.98161e-11
2.87629e-11
2.77264e-11
2.6723e-11
2.5767e-11
2.48705e-11
2.40426e-11
2.32894e-11
3.34855e-11
3.34048e-11
3.32439e-11
3.3004e-11
3.26869e-11
3.22955e-11
3.18336e-11
3.13063e-11
3.072e-11
3.00825e-11
2.94031e-11
2.86921e-11
2.79608e-11
2.72209e-11
2.64842e-11
2.57621e-11
2.50652e-11
2.44027e-11
2.37822e-11
2.32098e-11
3.04769e-11
3.0422e-11
3.03125e-11
3.0149e-11
2.99326e-11
2.96648e-11
2.93478e-11
2.89847e-11
2.85792e-11
2.81362e-11
2.76612e-11
2.71609e-11
2.66423e-11
2.61133e-11
2.55819e-11
2.5056e-11
2.45431e-11
2.40503e-11
2.35836e-11
2.31483e-11
2.84062e-11
2.83679e-11
2.82914e-11
2.81772e-11
2.80258e-11
2.78382e-11
2.76156e-11
2.73599e-11
2.70735e-11
2.67594e-11
2.64211e-11
2.60629e-11
2.56896e-11
2.53063e-11
2.49186e-11
2.45319e-11
2.41519e-11
2.37836e-11
2.34319e-11
2.3101e-11
2.69474e-11
2.69201e-11
2.68657e-11
2.67843e-11
2.66764e-11
2.65424e-11
2.63833e-11
2.62002e-11
2.59945e-11
2.57683e-11
2.55239e-11
2.52642e-11
2.49922e-11
2.47117e-11
2.44264e-11
2.41403e-11
2.38573e-11
2.35813e-11
2.33159e-11
2.30644e-11
2.59009e-11
2.58812e-11
2.58418e-11
2.5783e-11
2.57049e-11
2.56079e-11
2.54926e-11
2.53596e-11
2.52101e-11
2.50453e-11
2.48669e-11
2.46767e-11
2.44769e-11
2.42701e-11
2.40588e-11
2.38461e-11
2.36347e-11
2.34275e-11
2.32272e-11
2.30363e-11
2.51396e-11
2.51252e-11
2.50964e-11
2.50534e-11
2.49963e-11
2.49253e-11
2.48409e-11
2.47434e-11
2.46337e-11
2.45127e-11
2.43813e-11
2.4241e-11
2.40933e-11
2.39401e-11
2.37831e-11
2.36244e-11
2.34661e-11
2.33104e-11
2.31593e-11
2.30147e-11
2.458e-11
2.45694e-11
2.45482e-11
2.45165e-11
2.44744e-11
2.4422e-11
2.43597e-11
2.42878e-11
2.42068e-11
2.41173e-11
2.40201e-11
2.39161e-11
2.38065e-11
2.36925e-11
2.35755e-11
2.34569e-11
2.33384e-11
2.32214e-11
2.31075e-11
2.29982e-11
2.41655e-11
2.41577e-11
2.4142e-11
2.41185e-11
2.40872e-11
2.40484e-11
2.40022e-11
2.39489e-11
2.38888e-11
2.38223e-11
2.37501e-11
2.36728e-11
2.35913e-11
2.35063e-11
2.3419e-11
2.33303e-11
2.32415e-11
2.31537e-11
2.3068e-11
2.29855e-11
2.38569e-11
2.3851e-11
2.38393e-11
2.38218e-11
2.37986e-11
2.37698e-11
2.37354e-11
2.36957e-11
2.3651e-11
2.36015e-11
2.35478e-11
2.34902e-11
2.34294e-11
2.33661e-11
2.33009e-11
2.32346e-11
2.31682e-11
2.31023e-11
2.30379e-11
2.29758e-11
2.36262e-11
2.36219e-11
2.36132e-11
2.36001e-11
2.35828e-11
2.35613e-11
2.35357e-11
2.35061e-11
2.34728e-11
2.3436e-11
2.33959e-11
2.3353e-11
2.33077e-11
2.32605e-11
2.32118e-11
2.31623e-11
2.31126e-11
2.30634e-11
2.30151e-11
2.29685e-11
2.34535e-11
2.34503e-11
2.34438e-11
2.3434e-11
2.34211e-11
2.34051e-11
2.3386e-11
2.3364e-11
2.33391e-11
2.33117e-11
2.32819e-11
2.32499e-11
2.32162e-11
2.31809e-11
2.31447e-11
2.31078e-11
2.30707e-11
2.30339e-11
2.29978e-11
2.29629e-11
2.33241e-11
2.33217e-11
2.33169e-11
2.33096e-11
2.33e-11
2.3288e-11
2.32738e-11
2.32574e-11
2.32389e-11
2.32184e-11
2.31962e-11
2.31725e-11
2.31473e-11
2.31211e-11
2.30942e-11
2.30667e-11
2.30391e-11
2.30116e-11
2.29847e-11
2.29587e-11
2.32272e-11
2.32254e-11
2.32218e-11
2.32164e-11
2.32092e-11
2.32003e-11
2.31897e-11
2.31775e-11
2.31637e-11
2.31485e-11
2.3132e-11
2.31144e-11
2.30957e-11
2.30763e-11
2.30562e-11
2.30358e-11
2.30153e-11
2.29949e-11
2.29749e-11
2.29555e-11
2.31548e-11
2.31534e-11
2.31507e-11
2.31467e-11
2.31413e-11
2.31347e-11
2.31268e-11
2.31178e-11
2.31075e-11
2.30963e-11
2.3084e-11
2.30709e-11
2.30571e-11
2.30427e-11
2.30278e-11
2.30127e-11
2.29975e-11
2.29823e-11
2.29675e-11
2.29531e-11
2.31007e-11
2.30997e-11
2.30977e-11
2.30947e-11
2.30907e-11
2.30858e-11
2.30799e-11
2.30732e-11
2.30656e-11
2.30573e-11
2.30482e-11
2.30385e-11
2.30282e-11
2.30176e-11
2.30066e-11
2.29954e-11
2.29841e-11
2.2973e-11
2.2962e-11
2.29514e-11
2.30604e-11
2.30597e-11
2.30582e-11
2.3056e-11
2.3053e-11
2.30494e-11
2.30451e-11
2.30401e-11
2.30345e-11
2.30283e-11
2.30216e-11
2.30144e-11
2.30068e-11
2.29989e-11
2.29908e-11
2.29825e-11
2.29742e-11
2.2966e-11
2.29579e-11
2.295e-11
2.30307e-11
2.30301e-11
2.3029e-11
2.30274e-11
2.30252e-11
2.30225e-11
2.30193e-11
2.30156e-11
2.30114e-11
2.30068e-11
2.30019e-11
2.29966e-11
2.2991e-11
2.29851e-11
2.29791e-11
2.2973e-11
2.29669e-11
2.29608e-11
2.29548e-11
2.2949e-11
2.30088e-11
2.30084e-11
2.30076e-11
2.30064e-11
2.30047e-11
2.30027e-11
2.30003e-11
2.29976e-11
2.29945e-11
2.29911e-11
2.29874e-11
2.29835e-11
2.29793e-11
2.2975e-11
2.29706e-11
2.29661e-11
2.29615e-11
2.2957e-11
2.29526e-11
2.29483e-11
2.2993e-11
2.29927e-11
2.2992e-11
2.29911e-11
2.29899e-11
2.29884e-11
2.29866e-11
2.29846e-11
2.29822e-11
2.29797e-11
2.2977e-11
2.2974e-11
2.29709e-11
2.29677e-11
2.29644e-11
2.2961e-11
2.29576e-11
2.29543e-11
2.2951e-11
2.29478e-11
2.29817e-11
2.29815e-11
2.2981e-11
2.29803e-11
2.29794e-11
2.29783e-11
2.29769e-11
2.29753e-11
2.29736e-11
2.29716e-11
2.29695e-11
2.29673e-11
2.2965e-11
2.29625e-11
2.296e-11
2.29575e-11
2.29549e-11
2.29523e-11
2.29498e-11
2.29474e-11
2.29741e-11
2.29739e-11
2.29735e-11
2.2973e-11
2.29723e-11
2.29714e-11
2.29703e-11
2.29691e-11
2.29677e-11
2.29662e-11
2.29645e-11
2.29628e-11
2.29609e-11
2.2959e-11
2.2957e-11
2.2955e-11
2.2953e-11
2.2951e-11
2.29491e-11
2.29472e-11
2.29694e-11
2.29692e-11
2.29689e-11
2.29684e-11
2.29678e-11
2.29671e-11
2.29662e-11
2.29652e-11
2.2964e-11
2.29628e-11
2.29614e-11
2.29599e-11
2.29584e-11
2.29568e-11
2.29552e-11
2.29535e-11
2.29519e-11
2.29502e-11
2.29486e-11
2.2947e-11
2.29671e-11
2.2967e-11
2.29667e-11
2.29663e-11
2.29657e-11
2.2965e-11
2.29642e-11
2.29633e-11
2.29623e-11
2.29611e-11
2.29599e-11
2.29586e-11
2.29572e-11
2.29558e-11
2.29543e-11
2.29528e-11
2.29513e-11
2.29498e-11
2.29484e-11
2.29469e-11
)
;

boundaryField
{
    topWall
    {
        type            zeroGradient;
    }
    bottomWall
    {
        type            zeroGradient;
    }
    sideWallL
    {
        type            symmetry;
    }
    sideWallR
    {
        type            zeroGradient;
    }
    frontAndBack
    {
        type            empty;
    }
}


// ************************************************************************* //
