/*--------------------------------*- C++ -*----------------------------------*\
  =========                 |
  \\      /  F ield         | OpenFOAM: The Open Source CFD Toolbox
   \\    /   O peration     | Website:  https://openfoam.org
    \\  /    A nd           | Version:  7
     \\/     M anipulation  |
\*---------------------------------------------------------------------------*/
FoamFile
{
    version     2.0;
    format      ascii;
    class       volScalarField;
    location    "36";
    object      rhot1;
}
// * * * * * * * * * * * * * * * * * * * * * * * * * * * * * * * * * * * * * //

dimensions      [1 -3 0 0 0 0 0];

internalField   nonuniform List<scalar> 
900
(
2.76783
2.7648
2.75856
2.74878
2.7349
2.7161
2.69127
2.65884
2.61671
2.56199
2.49068
2.39718
2.27351
2.108
1.88293
1.57075
1.13272
0.559381
0.0794106
3.95452e-05
0.288298
0.287058
0.284523
0.280577
0.275047
0.267691
0.258199
0.246191
0.231224
0.212818
0.190518
0.16402
0.133408
0.0995674
0.0647891
0.0333652
0.0111107
0.0014895
2.2501e-05
7.52412e-10
0.0297796
0.0295468
0.0290734
0.0283442
0.0273373
0.0260252
0.024378
0.0223679
0.0199774
0.0172128
0.0141227
0.010823
0.00752101
0.00452056
0.00217227
0.000726876
0.000131084
7.70679e-06
5.30158e-08
6.30991e-12
0.00297425
0.00293953
0.00286939
0.0027626
0.00261763
0.00243307
0.00220842
0.00194506
0.00164769
0.00132593
0.000995879
0.000680485
0.000407243
0.000201452
7.52274e-05
1.83242e-05
2.28948e-06
9.87211e-08
7.94911e-10
6.65523e-13
0.000291989
0.000287425
0.000278273
0.000264508
0.000246154
0.000223353
0.000196472
0.000166228
0.000133813
0.000100973
6.9954e-05
4.32177e-05
2.28393e-05
9.72158e-06
3.05192e-06
6.20802e-07
6.78037e-08
3.07213e-09
4.32702e-11
1.98054e-13
2.89708e-05
2.84078e-05
2.72872e-05
2.56222e-05
2.3441e-05
2.07952e-05
1.7771e-05
1.44988e-05
1.11577e-05
7.96852e-06
5.16658e-06
2.95183e-06
1.42681e-06
5.51897e-07
1.58382e-07
3.04849e-08
3.46333e-09
2.01718e-10
5.52674e-12
9.57261e-14
2.99187e-06
2.92357e-06
2.78851e-06
2.59014e-06
2.33448e-06
2.03107e-06
1.69377e-06
1.34113e-06
9.95765e-07
6.82016e-07
4.21757e-07
2.28972e-07
1.05227e-07
3.90606e-08
1.10423e-08
2.21569e-09
2.926e-10
2.39822e-11
1.25153e-12
5.99383e-14
3.31029e-07
3.22552e-07
3.05886e-07
2.81649e-07
2.50852e-07
2.14973e-07
1.75996e-07
1.36366e-07
9.87942e-08
6.5897e-08
3.96828e-08
2.10516e-08
9.54484e-09
3.56659e-09
1.05344e-09
2.35435e-10
3.83927e-11
4.53802e-12
4.21939e-13
4.3699e-14
4.03094e-08
3.91961e-08
3.70178e-08
3.38751e-08
2.99263e-08
2.53914e-08
2.05498e-08
1.5725e-08
1.12515e-08
7.42474e-09
4.44321e-09
2.36326e-09
1.0913e-09
4.2626e-10
1.3712e-10
3.55072e-11
7.33195e-12
1.23664e-12
1.89295e-13
3.50541e-14
5.53098e-09
5.37186e-09
5.06161e-09
4.61657e-09
4.06174e-09
3.43075e-09
2.7646e-09
2.10872e-09
1.50777e-09
9.98911e-10
6.04866e-10
3.29597e-10
1.58914e-10
6.66509e-11
2.39627e-11
7.32825e-12
1.92149e-12
4.49865e-13
1.04712e-13
2.99436e-14
8.71838e-10
8.46518e-10
7.97258e-10
7.26838e-10
6.39439e-10
5.40548e-10
4.36687e-10
3.34872e-10
2.41802e-10
1.62874e-10
1.01275e-10
5.74834e-11
2.94527e-11
1.34913e-11
5.49382e-12
1.99404e-12
6.57093e-13
2.0609e-13
6.76204e-14
2.66966e-14
1.60167e-10
1.55605e-10
1.46738e-10
1.34077e-10
1.18383e-10
1.00642e-10
8.20024e-11
6.36865e-11
4.68454e-11
3.2404e-11
2.09203e-11
1.25126e-11
6.8887e-12
3.47706e-12
1.61036e-12
6.90755e-13
2.80984e-13
1.13484e-13
4.89554e-14
2.45252e-14
3.46181e-11
3.36771e-11
3.18474e-11
2.9233e-11
2.59875e-11
2.2308e-11
1.84236e-11
1.45761e-11
1.09947e-11
7.86697e-12
5.31312e-12
3.37245e-12
2.00637e-12
1.11902e-12
5.88117e-13
2.95063e-13
1.44809e-13
7.22636e-14
3.85506e-14
2.30176e-14
8.84463e-12
8.62114e-12
8.18603e-12
7.56287e-12
6.78635e-12
5.90093e-12
4.95829e-12
4.01334e-12
3.11881e-12
2.31929e-12
1.64581e-12
1.11244e-12
7.16261e-13
4.40643e-13
2.60982e-13
1.50889e-13
8.70139e-14
5.15097e-14
3.22867e-14
2.19416e-14
2.67324e-12
2.61209e-12
2.4928e-12
2.32134e-12
2.10653e-12
1.85968e-12
1.594e-12
1.32373e-12
1.06281e-12
8.23515e-13
6.1512e-13
4.42939e-13
3.08073e-13
2.07915e-13
1.37276e-13
8.97851e-14
5.91503e-14
4.00109e-14
2.82897e-14
2.11573e-14
9.53647e-13
9.34442e-13
8.96886e-13
8.42674e-13
7.74312e-13
6.95036e-13
6.08666e-13
5.19372e-13
4.31354e-13
3.48464e-13
2.73838e-13
2.09594e-13
1.56694e-13
1.14992e-13
8.34503e-14
6.04787e-14
4.42824e-14
3.31487e-14
2.56232e-14
2.05767e-14
3.9964e-13
3.92768e-13
3.79293e-13
3.5975e-13
3.34932e-13
3.05875e-13
2.73812e-13
2.40116e-13
2.06206e-13
1.73439e-13
1.42992e-13
1.15762e-13
9.23042e-14
7.28089e-14
5.71464e-14
4.4944e-14
3.56861e-14
2.88106e-14
2.37829e-14
2.01417e-14
1.95269e-13
1.92496e-13
1.87042e-13
1.79094e-13
1.68929e-13
1.56914e-13
1.43491e-13
1.29159e-13
1.1445e-13
9.98933e-14
8.59718e-14
7.30904e-14
6.15439e-14
5.15028e-14
4.30149e-14
3.60228e-14
3.0392e-14
2.59426e-14
2.24791e-14
1.98129e-14
1.09999e-13
1.08751e-13
1.06291e-13
1.02689e-13
9.80513e-14
9.25201e-14
8.62684e-14
7.94959e-14
7.24208e-14
6.52667e-14
5.82495e-14
5.15619e-14
4.5361e-14
3.97592e-14
3.48207e-14
3.05633e-14
2.69662e-14
2.39797e-14
2.15367e-14
1.95626e-14
7.03155e-14
6.96978e-14
6.84769e-14
6.6682e-14
6.4357e-14
6.15611e-14
5.83679e-14
5.4864e-14
5.11459e-14
4.7316e-14
4.34769e-14
3.97258e-14
3.61482e-14
3.28134e-14
2.9771e-14
2.70506e-14
2.46622e-14
2.25997e-14
2.08449e-14
1.93713e-14
5.00172e-14
4.96852e-14
4.90276e-14
4.80571e-14
4.67932e-14
4.52627e-14
4.34988e-14
4.15418e-14
3.94374e-14
3.72356e-14
3.49883e-14
3.27467e-14
3.0559e-14
2.84672e-14
2.65057e-14
2.46998e-14
2.30652e-14
2.16092e-14
2.03311e-14
1.92244e-14
3.87699e-14
3.85786e-14
3.81989e-14
3.76369e-14
3.69017e-14
3.6006e-14
3.49659e-14
3.38013e-14
3.25351e-14
3.11932e-14
2.98031e-14
2.83933e-14
2.69915e-14
2.56238e-14
2.43128e-14
2.30775e-14
2.19323e-14
2.08868e-14
1.99461e-14
1.91115e-14
3.21102e-14
3.19935e-14
3.17614e-14
3.14169e-14
3.09646e-14
3.04108e-14
2.97638e-14
2.90339e-14
2.82333e-14
2.73759e-14
2.64772e-14
2.55535e-14
2.46214e-14
2.36972e-14
2.27959e-14
2.19311e-14
2.1114e-14
2.03534e-14
1.96557e-14
1.90246e-14
2.79479e-14
2.78732e-14
2.77245e-14
2.75034e-14
2.72122e-14
2.68542e-14
2.6434e-14
2.59571e-14
2.54302e-14
2.48614e-14
2.42596e-14
2.36345e-14
2.29964e-14
2.23557e-14
2.17224e-14
2.11059e-14
2.05148e-14
1.99561e-14
1.94356e-14
1.89576e-14
2.52308e-14
2.51812e-14
2.50823e-14
2.4935e-14
2.47406e-14
2.45009e-14
2.42184e-14
2.38963e-14
2.35385e-14
2.31497e-14
2.27354e-14
2.23016e-14
2.18547e-14
2.14016e-14
2.0949e-14
2.05036e-14
2.00714e-14
1.96581e-14
1.92683e-14
1.8906e-14
2.3395e-14
2.33611e-14
2.32933e-14
2.31923e-14
2.30587e-14
2.28936e-14
2.26985e-14
2.24752e-14
2.22262e-14
2.19543e-14
2.16629e-14
2.13558e-14
2.10374e-14
2.07121e-14
2.03845e-14
2.00592e-14
1.97409e-14
1.94335e-14
1.91409e-14
1.88663e-14
2.21207e-14
2.20969e-14
2.20494e-14
2.19785e-14
2.18846e-14
2.17684e-14
2.16308e-14
2.14729e-14
2.12962e-14
2.11026e-14
2.08943e-14
2.06737e-14
2.04438e-14
2.02075e-14
1.99681e-14
1.97289e-14
1.9493e-14
1.92637e-14
1.90437e-14
1.88357e-14
2.12174e-14
2.12004e-14
2.11665e-14
2.11159e-14
2.10488e-14
2.09656e-14
2.08669e-14
2.07536e-14
2.06264e-14
2.04867e-14
2.03359e-14
2.01757e-14
2.0008e-14
1.9835e-14
1.96588e-14
1.94819e-14
1.93065e-14
1.91351e-14
1.89697e-14
1.88123e-14
2.05667e-14
2.05544e-14
2.05299e-14
2.04933e-14
2.04447e-14
2.03844e-14
2.03129e-14
2.02305e-14
2.0138e-14
2.00362e-14
1.99261e-14
1.98087e-14
1.96856e-14
1.95581e-14
1.94279e-14
1.92965e-14
1.91659e-14
1.90375e-14
1.89132e-14
1.87943e-14
2.00924e-14
2.00834e-14
2.00655e-14
2.00387e-14
2.00032e-14
1.99592e-14
1.99068e-14
1.98465e-14
1.97787e-14
1.9704e-14
1.9623e-14
1.95366e-14
1.94457e-14
1.93514e-14
1.92548e-14
1.91571e-14
1.90596e-14
1.89636e-14
1.88702e-14
1.87806e-14
1.97436e-14
1.9737e-14
1.97238e-14
1.97041e-14
1.9678e-14
1.96456e-14
1.9607e-14
1.95626e-14
1.95126e-14
1.94575e-14
1.93977e-14
1.93338e-14
1.92665e-14
1.91966e-14
1.91248e-14
1.90521e-14
1.89794e-14
1.89076e-14
1.88375e-14
1.87702e-14
1.94854e-14
1.94806e-14
1.94708e-14
1.94563e-14
1.9437e-14
1.9413e-14
1.93845e-14
1.93517e-14
1.93147e-14
1.92739e-14
1.92297e-14
1.91823e-14
1.91325e-14
1.90805e-14
1.90272e-14
1.89731e-14
1.89188e-14
1.88652e-14
1.88127e-14
1.87622e-14
1.92936e-14
1.929e-14
1.92828e-14
1.9272e-14
1.92577e-14
1.924e-14
1.92189e-14
1.91945e-14
1.91672e-14
1.91369e-14
1.91041e-14
1.9069e-14
1.9032e-14
1.89935e-14
1.89538e-14
1.89135e-14
1.88732e-14
1.88331e-14
1.8794e-14
1.87562e-14
1.91508e-14
1.91481e-14
1.91428e-14
1.91348e-14
1.91242e-14
1.9111e-14
1.90953e-14
1.90773e-14
1.9057e-14
1.90346e-14
1.90102e-14
1.89842e-14
1.89568e-14
1.89281e-14
1.88987e-14
1.88688e-14
1.88388e-14
1.8809e-14
1.87798e-14
1.87516e-14
1.90443e-14
1.90423e-14
1.90383e-14
1.90324e-14
1.90245e-14
1.90148e-14
1.90032e-14
1.89898e-14
1.89747e-14
1.89581e-14
1.89401e-14
1.89208e-14
1.89004e-14
1.88792e-14
1.88574e-14
1.88352e-14
1.88129e-14
1.87908e-14
1.87691e-14
1.87481e-14
1.89649e-14
1.89635e-14
1.89605e-14
1.89561e-14
1.89503e-14
1.8943e-14
1.89344e-14
1.89245e-14
1.89134e-14
1.89011e-14
1.88877e-14
1.88734e-14
1.88584e-14
1.88427e-14
1.88265e-14
1.88101e-14
1.87936e-14
1.87772e-14
1.87611e-14
1.87456e-14
1.89059e-14
1.89048e-14
1.89026e-14
1.88993e-14
1.8895e-14
1.88896e-14
1.88833e-14
1.88759e-14
1.88677e-14
1.88586e-14
1.88487e-14
1.88382e-14
1.8827e-14
1.88154e-14
1.88035e-14
1.87914e-14
1.87792e-14
1.8767e-14
1.87551e-14
1.87436e-14
1.8862e-14
1.88612e-14
1.88596e-14
1.88572e-14
1.8854e-14
1.885e-14
1.88453e-14
1.88399e-14
1.88338e-14
1.88271e-14
1.88198e-14
1.8812e-14
1.88037e-14
1.87952e-14
1.87864e-14
1.87774e-14
1.87684e-14
1.87595e-14
1.87507e-14
1.87422e-14
1.88297e-14
1.88291e-14
1.88279e-14
1.88261e-14
1.88237e-14
1.88208e-14
1.88173e-14
1.88133e-14
1.88087e-14
1.88038e-14
1.87984e-14
1.87926e-14
1.87866e-14
1.87802e-14
1.87737e-14
1.87671e-14
1.87605e-14
1.87539e-14
1.87474e-14
1.87411e-14
1.88059e-14
1.88055e-14
1.88046e-14
1.88033e-14
1.88015e-14
1.87993e-14
1.87967e-14
1.87937e-14
1.87904e-14
1.87867e-14
1.87827e-14
1.87784e-14
1.8774e-14
1.87693e-14
1.87645e-14
1.87596e-14
1.87547e-14
1.87498e-14
1.8745e-14
1.87403e-14
1.87887e-14
1.87884e-14
1.87877e-14
1.87867e-14
1.87854e-14
1.87838e-14
1.87818e-14
1.87796e-14
1.87771e-14
1.87744e-14
1.87714e-14
1.87682e-14
1.87648e-14
1.87613e-14
1.87578e-14
1.87541e-14
1.87504e-14
1.87468e-14
1.87432e-14
1.87398e-14
1.87766e-14
1.87763e-14
1.87758e-14
1.8775e-14
1.8774e-14
1.87728e-14
1.87713e-14
1.87696e-14
1.87677e-14
1.87656e-14
1.87633e-14
1.87609e-14
1.87584e-14
1.87557e-14
1.8753e-14
1.87502e-14
1.87475e-14
1.87447e-14
1.8742e-14
1.87394e-14
1.87683e-14
1.87681e-14
1.87677e-14
1.87671e-14
1.87663e-14
1.87653e-14
1.87641e-14
1.87628e-14
1.87613e-14
1.87597e-14
1.87579e-14
1.8756e-14
1.8754e-14
1.87519e-14
1.87498e-14
1.87476e-14
1.87454e-14
1.87433e-14
1.87412e-14
1.87391e-14
1.87632e-14
1.8763e-14
1.87626e-14
1.87622e-14
1.87615e-14
1.87607e-14
1.87597e-14
1.87586e-14
1.87574e-14
1.8756e-14
1.87545e-14
1.87529e-14
1.87513e-14
1.87496e-14
1.87478e-14
1.8746e-14
1.87442e-14
1.87424e-14
1.87406e-14
1.87389e-14
1.87607e-14
1.87606e-14
1.87602e-14
1.87598e-14
1.87592e-14
1.87585e-14
1.87576e-14
1.87566e-14
1.87555e-14
1.87542e-14
1.87529e-14
1.87515e-14
1.875e-14
1.87484e-14
1.87468e-14
1.87452e-14
1.87436e-14
1.8742e-14
1.87404e-14
1.87389e-14
)
;

boundaryField
{
    topWall
    {
        type            zeroGradient;
    }
    bottomWall
    {
        type            zeroGradient;
    }
    sideWallL
    {
        type            symmetry;
    }
    sideWallR
    {
        type            calculated;
        value           uniform 0;
    }
    frontAndBack
    {
        type            empty;
    }
}


// ************************************************************************* //
