/*--------------------------------*- C++ -*----------------------------------*\
  =========                 |
  \\      /  F ield         | OpenFOAM: The Open Source CFD Toolbox
   \\    /   O peration     | Website:  https://openfoam.org
    \\  /    A nd           | Version:  7
     \\/     M anipulation  |
\*---------------------------------------------------------------------------*/
FoamFile
{
    version     2.0;
    format      ascii;
    class       volScalarField;
    location    "36";
    object      rhot2;
}
// * * * * * * * * * * * * * * * * * * * * * * * * * * * * * * * * * * * * * //

dimensions      [1 -3 0 0 0 0 0];

internalField   nonuniform List<scalar> 
900
(
0.226067
0.225508
0.22436
0.222566
0.220035
0.216637
0.212199
0.20649
0.199219
0.190016
0.178425
0.163905
0.145846
0.12364
0.0968709
0.0658609
0.0333078
0.00795026
0.000167898
5.94854e-11
0.00212958
0.00211152
0.00207483
0.00201838
0.00194056
0.00183942
0.00171289
0.00155925
0.00137781
0.00116999
0.000940813
0.000700694
0.00046688
0.000262906
0.000113248
3.0898e-05
3.60035e-06
7.10604e-08
1.98007e-11
3.67182e-20
2.45991e-05
2.42249e-05
2.34727e-05
2.23368e-05
2.08133e-05
1.89071e-05
1.66406e-05
1.40663e-05
1.12803e-05
8.43316e-06
5.73031e-06
3.40806e-06
1.6744e-06
6.19737e-07
1.48191e-07
1.74833e-08
6.17164e-10
2.44465e-12
1.47387e-16
3.29661e-24
2.71969e-07
2.6581e-07
2.53581e-07
2.35499e-07
2.11995e-07
1.83818e-07
1.52165e-07
1.18776e-07
8.5929e-08
5.62396e-08
3.2172e-08
1.53019e-08
5.61874e-09
1.4226e-09
2.08061e-10
1.3218e-11
2.28235e-13
4.94682e-16
4.0726e-20
4.13797e-26
2.91739e-09
2.82912e-09
2.65611e-09
2.40592e-09
2.09108e-09
1.72996e-09
1.34715e-09
9.72327e-10
6.36862e-10
3.67678e-10
1.79683e-10
7.02168e-11
2.02309e-11
3.82144e-12
3.98516e-13
1.78236e-14
2.37008e-16
5.67082e-19
1.39562e-22
3.92601e-27
3.19875e-11
3.07867e-11
2.84628e-11
2.51744e-11
2.11645e-11
1.67562e-11
1.2333e-11
8.29255e-12
4.97512e-12
2.58009e-12
1.10806e-12
3.71801e-13
9.00295e-14
1.41141e-14
1.23605e-15
4.9673e-17
7.14281e-19
2.79585e-21
2.52927e-24
9.5818e-28
3.7959e-13
3.62879e-13
3.30912e-13
2.86563e-13
2.34e-13
1.78365e-13
1.25172e-13
7.93953e-14
4.44223e-14
2.12345e-14
8.31638e-15
2.52654e-15
5.54561e-16
8.02651e-17
6.83055e-18
2.98001e-19
5.75567e-21
4.39666e-23
1.40256e-25
3.86959e-28
5.158e-15
4.90362e-15
4.42181e-15
3.76447e-15
3.00369e-15
2.2231e-15
1.50509e-15
9.15217e-16
4.88191e-16
2.21645e-16
8.24413e-17
2.39484e-17
5.12194e-18
7.51354e-19
6.96996e-20
3.75628e-21
1.09645e-22
1.71431e-24
1.69217e-26
2.10012e-28
8.45774e-17
8.00839e-17
7.1638e-17
6.02615e-17
4.73275e-17
3.43555e-17
2.27452e-17
1.34999e-17
7.02934e-18
3.12588e-18
1.14885e-18
3.35543e-19
7.44056e-20
1.19073e-20
1.30573e-21
9.38859e-23
4.34963e-24
1.36336e-25
3.56724e-27
1.37178e-28
1.75233e-18
1.65543e-18
1.47422e-18
1.23217e-18
9.60072e-19
6.90886e-19
4.53613e-19
2.67585e-19
1.39167e-19
6.23803e-20
2.34664e-20
7.18781e-21
1.73474e-21
3.19165e-22
4.35144e-23
4.33294e-24
3.20337e-25
1.90717e-26
1.1319e-27
1.01198e-28
4.76341e-20
4.49762e-20
4.00182e-20
3.34207e-20
2.60386e-20
1.877e-20
1.2386e-20
7.38431e-21
3.9155e-21
1.81325e-21
7.18569e-22
2.38426e-22
6.48213e-23
1.41732e-23
2.46584e-24
3.43327e-25
3.96971e-26
4.18755e-27
4.85673e-28
8.10966e-29
1.74739e-21
1.65178e-21
1.47343e-21
1.23598e-21
9.69896e-22
7.0697e-22
4.7443e-22
2.8999e-22
1.59456e-22
7.77939e-23
3.31849e-23
1.22003e-23
3.81812e-24
1.00951e-24
2.25952e-25
4.36264e-26
7.61737e-27
1.31734e-27
2.60279e-28
6.88573e-29
8.8109e-23
8.35072e-23
7.49034e-23
6.34004e-23
5.04208e-23
3.74586e-23
2.58125e-23
1.63615e-23
9.45149e-24
4.92714e-24
2.2958e-24
9.48269e-25
3.45429e-25
1.11048e-25
3.18372e-26
8.35398e-27
2.10586e-27
5.50303e-28
1.64196e-28
6.09307e-29
6.16358e-24
5.86424e-24
5.30227e-24
4.54541e-24
3.68174e-24
2.80516e-24
1.99959e-24
1.32543e-24
8.11696e-25
4.56353e-25
2.34276e-25
1.09449e-25
4.6546e-26
1.81324e-26
6.56921e-27
2.27514e-27
7.85918e-28
2.86335e-28
1.167e-28
5.556e-29
5.99136e-25
5.72788e-25
5.23048e-25
4.55408e-25
3.77096e-25
2.95986e-25
2.19381e-25
1.52915e-25
9.98316e-26
6.08367e-26
3.45329e-26
1.82634e-26
9.03488e-27
4.21952e-27
1.89091e-27
8.33326e-28
3.7308e-28
1.76025e-28
9.04984e-29
5.1797e-29
8.05839e-26
7.74643e-26
7.15365e-26
6.33841e-26
5.37875e-26
4.36183e-26
3.37193e-26
2.47887e-26
1.72943e-26
1.14368e-26
7.17118e-27
4.27438e-27
2.43582e-27
1.34019e-27
7.2235e-28
3.88768e-28
2.13637e-28
1.22584e-28
7.48113e-29
4.90934e-29
1.48624e-26
1.43714e-26
1.34318e-26
1.21239e-26
1.05568e-26
8.85578e-27
7.1474e-27
5.54377e-27
4.12987e-27
2.95583e-27
2.03595e-27
1.35442e-27
8.7541e-28
5.54493e-28
3.48114e-28
2.19545e-28
1.4109e-28
9.36284e-29
6.48253e-29
4.7114e-29
3.70491e-27
3.60394e-27
3.40933e-27
3.1351e-27
2.80065e-27
2.42889e-27
2.04393e-27
1.66849e-27
1.32163e-27
1.01694e-27
7.61797e-28
5.57543e-28
4.00711e-28
2.84709e-28
2.01597e-28
1.43527e-28
1.03661e-28
7.65554e-29
5.81679e-29
4.56439e-29
1.2209e-27
1.19438e-27
1.14292e-27
1.06956e-27
9.78576e-28
8.75172e-28
7.65023e-28
6.5379e-28
5.46617e-28
4.47687e-28
3.59927e-28
2.84901e-28
2.229e-28
1.73197e-28
1.34383e-28
1.04717e-28
8.24104e-29
6.5825e-29
5.35719e-29
4.45403e-29
5.15307e-28
5.06663e-28
4.89783e-28
4.65467e-28
4.34857e-28
3.99377e-28
3.60636e-28
3.20317e-28
2.80052e-28
2.413e-28
2.05243e-28
1.72722e-28
1.44216e-28
1.19863e-28
9.95259e-29
8.28679e-29
6.94389e-29
5.87473e-29
5.03138e-29
4.37054e-29
2.67853e-28
2.64466e-28
2.57818e-28
2.48154e-28
2.35836e-28
2.2132e-28
2.0514e-28
1.87876e-28
1.70124e-28
1.52453e-28
1.35372e-28
1.19301e-28
1.04549e-28
9.13119e-29
7.96723e-29
6.96204e-29
6.10744e-29
5.3905e-29
4.79575e-29
4.307e-29
1.64446e-28
1.62903e-28
1.59861e-28
1.55408e-28
1.49673e-28
1.42824e-28
1.35063e-28
1.26618e-28
1.1773e-28
1.08646e-28
9.9601e-29
9.0808e-29
8.24465e-29
7.46554e-29
6.75302e-29
6.1124e-29
5.5452e-29
5.04991e-29
4.62274e-29
4.25845e-29
1.14706e-28
1.13914e-28
1.12346e-28
1.10038e-28
1.07042e-28
1.03427e-28
9.9277e-29
9.46916e-29
8.97795e-29
8.46557e-29
7.94371e-29
7.42358e-29
6.9155e-29
6.42835e-29
5.96935e-29
5.54382e-29
5.15522e-29
4.80529e-29
4.49428e-29
4.22125e-29
8.80002e-29
8.75533e-29
8.66669e-29
8.53564e-29
8.36447e-29
8.1563e-29
7.91503e-29
7.64529e-29
7.3524e-29
7.04216e-29
6.72071e-29
6.39423e-29
6.06876e-29
5.74989e-29
5.44257e-29
5.15094e-29
4.87825e-29
4.62681e-29
4.39809e-29
4.19271e-29
7.23972e-29
7.21265e-29
7.15885e-29
7.07904e-29
6.97434e-29
6.84624e-29
6.69668e-29
6.52801e-29
6.34299e-29
6.14475e-29
5.93667e-29
5.72233e-29
5.50535e-29
5.28927e-29
5.07743e-29
4.87281e-29
4.67799e-29
4.49507e-29
4.32564e-29
4.1708e-29
6.26765e-29
6.25033e-29
6.21586e-29
6.16462e-29
6.09715e-29
6.01425e-29
5.91693e-29
5.80646e-29
5.68438e-29
5.55243e-29
5.4126e-29
5.26703e-29
5.11797e-29
4.9677e-29
4.81844e-29
4.67233e-29
4.53128e-29
4.39698e-29
4.27084e-29
4.15397e-29
5.63192e-29
5.62037e-29
5.59737e-29
5.56312e-29
5.51791e-29
5.46217e-29
5.39649e-29
5.32158e-29
5.23833e-29
5.14778e-29
5.05114e-29
4.94973e-29
4.845e-29
4.73844e-29
4.63156e-29
4.52586e-29
4.42275e-29
4.32351e-29
4.22929e-29
4.14106e-29
5.20068e-29
5.19274e-29
5.17692e-29
5.15332e-29
5.12212e-29
5.08357e-29
5.03801e-29
4.98587e-29
4.92768e-29
4.86411e-29
4.7959e-29
4.72392e-29
4.64909e-29
4.57244e-29
4.49499e-29
4.41781e-29
4.3419e-29
4.26826e-29
4.19775e-29
4.13116e-29
4.90004e-29
4.89446e-29
4.88332e-29
4.8667e-29
4.84469e-29
4.81746e-29
4.7852e-29
4.7482e-29
4.70679e-29
4.6614e-29
4.61251e-29
4.56069e-29
4.50658e-29
4.45086e-29
4.39427e-29
4.33753e-29
4.2814e-29
4.22659e-29
4.17378e-29
4.12359e-29
4.68615e-29
4.68215e-29
4.67418e-29
4.66228e-29
4.6465e-29
4.62696e-29
4.60379e-29
4.57716e-29
4.5473e-29
4.51448e-29
4.47905e-29
4.44138e-29
4.4019e-29
4.36111e-29
4.3195e-29
4.2776e-29
4.23597e-29
4.19513e-29
4.15558e-29
4.11781e-29
4.53168e-29
4.52879e-29
4.52301e-29
4.51438e-29
4.50295e-29
4.48877e-29
4.47194e-29
4.45258e-29
4.43084e-29
4.40691e-29
4.38103e-29
4.35345e-29
4.32448e-29
4.29446e-29
4.26375e-29
4.23274e-29
4.20181e-29
4.17137e-29
4.14177e-29
4.1134e-29
4.41892e-29
4.41681e-29
4.41259e-29
4.40628e-29
4.39792e-29
4.38756e-29
4.37524e-29
4.36107e-29
4.34514e-29
4.32759e-29
4.30858e-29
4.2883e-29
4.26696e-29
4.2448e-29
4.22209e-29
4.1991e-29
4.17612e-29
4.15343e-29
4.13132e-29
4.11005e-29
4.33599e-29
4.33444e-29
4.33134e-29
4.32671e-29
4.32056e-29
4.31294e-29
4.30389e-29
4.29347e-29
4.28175e-29
4.26883e-29
4.25482e-29
4.23986e-29
4.22411e-29
4.20773e-29
4.19091e-29
4.17386e-29
4.15679e-29
4.1399e-29
4.12341e-29
4.10751e-29
4.2747e-29
4.27355e-29
4.27127e-29
4.26785e-29
4.26332e-29
4.25771e-29
4.25103e-29
4.24334e-29
4.2347e-29
4.22517e-29
4.21483e-29
4.20378e-29
4.19214e-29
4.18003e-29
4.16758e-29
4.15494e-29
4.14227e-29
4.12972e-29
4.11744e-29
4.10559e-29
4.22927e-29
4.22842e-29
4.22673e-29
4.22421e-29
4.22087e-29
4.21672e-29
4.21179e-29
4.20611e-29
4.19973e-29
4.19269e-29
4.18506e-29
4.1769e-29
4.16829e-29
4.15934e-29
4.15013e-29
4.14077e-29
4.13138e-29
4.12207e-29
4.11296e-29
4.10415e-29
4.19556e-29
4.19493e-29
4.19368e-29
4.19182e-29
4.18935e-29
4.18628e-29
4.18264e-29
4.17845e-29
4.17374e-29
4.16854e-29
4.1629e-29
4.15687e-29
4.15052e-29
4.1439e-29
4.1371e-29
4.13018e-29
4.12324e-29
4.11635e-29
4.1096e-29
4.10306e-29
4.17055e-29
4.17009e-29
4.16917e-29
4.16779e-29
4.16596e-29
4.1637e-29
4.16101e-29
4.15791e-29
4.15443e-29
4.1506e-29
4.14643e-29
4.14199e-29
4.1373e-29
4.13242e-29
4.1274e-29
4.12229e-29
4.11716e-29
4.11207e-29
4.10708e-29
4.10225e-29
4.15205e-29
4.1517e-29
4.15102e-29
4.15e-29
4.14865e-29
4.14698e-29
4.14499e-29
4.14271e-29
4.14014e-29
4.13731e-29
4.13424e-29
4.13096e-29
4.1275e-29
4.1239e-29
4.1202e-29
4.11643e-29
4.11265e-29
4.1089e-29
4.10521e-29
4.10165e-29
4.1384e-29
4.13815e-29
4.13764e-29
4.13689e-29
4.13589e-29
4.13465e-29
4.13318e-29
4.13149e-29
4.12959e-29
4.1275e-29
4.12524e-29
4.12282e-29
4.12027e-29
4.11761e-29
4.11488e-29
4.11211e-29
4.10932e-29
4.10655e-29
4.10383e-29
4.1012e-29
4.12841e-29
4.12822e-29
4.12784e-29
4.12728e-29
4.12654e-29
4.12562e-29
4.12454e-29
4.12328e-29
4.12188e-29
4.12033e-29
4.11865e-29
4.11686e-29
4.11497e-29
4.11301e-29
4.11099e-29
4.10894e-29
4.10687e-29
4.10483e-29
4.10282e-29
4.10087e-29
4.12118e-29
4.12104e-29
4.12076e-29
4.12034e-29
4.11978e-29
4.11909e-29
4.11828e-29
4.11734e-29
4.11629e-29
4.11514e-29
4.11388e-29
4.11255e-29
4.11114e-29
4.10968e-29
4.10817e-29
4.10664e-29
4.10511e-29
4.10358e-29
4.10208e-29
4.10063e-29
4.11606e-29
4.11595e-29
4.11574e-29
4.11542e-29
4.11499e-29
4.11447e-29
4.11385e-29
4.11314e-29
4.11234e-29
4.11146e-29
4.11051e-29
4.1095e-29
4.10843e-29
4.10732e-29
4.10618e-29
4.10502e-29
4.10385e-29
4.1027e-29
4.10157e-29
4.10047e-29
4.11258e-29
4.1125e-29
4.11233e-29
4.11208e-29
4.11175e-29
4.11133e-29
4.11085e-29
4.11029e-29
4.10966e-29
4.10897e-29
4.10822e-29
4.10743e-29
4.10659e-29
4.10572e-29
4.10482e-29
4.10392e-29
4.103e-29
4.1021e-29
4.10121e-29
4.10035e-29
4.11043e-29
4.11036e-29
4.11022e-29
4.11001e-29
4.10973e-29
4.10939e-29
4.10899e-29
4.10852e-29
4.108e-29
4.10742e-29
4.1068e-29
4.10614e-29
4.10545e-29
4.10473e-29
4.10399e-29
4.10323e-29
4.10248e-29
4.10173e-29
4.10099e-29
4.10028e-29
4.1094e-29
4.10934e-29
4.10921e-29
4.10902e-29
4.10877e-29
4.10846e-29
4.1081e-29
4.10768e-29
4.10721e-29
4.10669e-29
4.10613e-29
4.10553e-29
4.10491e-29
4.10425e-29
4.10359e-29
4.10291e-29
4.10223e-29
4.10155e-29
4.10089e-29
4.10025e-29
)
;

boundaryField
{
    topWall
    {
        type            zeroGradient;
    }
    bottomWall
    {
        type            zeroGradient;
    }
    sideWallL
    {
        type            symmetry;
    }
    sideWallR
    {
        type            zeroGradient;
    }
    frontAndBack
    {
        type            empty;
    }
}


// ************************************************************************* //
