/*--------------------------------*- C++ -*----------------------------------*\
  =========                 |
  \\      /  F ield         | OpenFOAM: The Open Source CFD Toolbox
   \\    /   O peration     | Website:  https://openfoam.org
    \\  /    A nd           | Version:  7
     \\/     M anipulation  |
\*---------------------------------------------------------------------------*/
FoamFile
{
    version     2.0;
    format      ascii;
    class       volScalarField;
    location    "36";
    object      T;
}
// * * * * * * * * * * * * * * * * * * * * * * * * * * * * * * * * * * * * * //

dimensions      [0 0 0 1 0 0 0];

internalField   nonuniform List<scalar> 
900
(
600.208
600.176
600.11
600.007
599.861
599.663
599.401
599.06
598.616
598.039
597.282
596.281
594.94
593.101
590.49
586.55
579.92
566.662
533.582
433.547
553.417
553.334
553.163
552.895
552.514
551.998
551.316
550.424
549.262
547.744
545.749
543.099
539.528
534.614
527.66
517.422
501.504
474.918
427.097
340.068
517.906
517.779
517.519
517.111
516.534
515.752
514.721
513.375
511.627
509.351
506.375
502.448
497.203
490.089
480.247
466.316
446.101
416.167
371.811
309.531
486.454
486.288
485.948
485.416
484.664
483.649
482.316
480.585
478.349
475.463
471.728
466.865
460.489
452.05
440.774
425.568
404.967
377.21
340.831
296.401
458.17
457.973
457.57
456.941
456.053
454.861
453.302
451.291
448.715
445.424
441.218
435.831
428.913
419.999
408.491
393.653
374.66
350.804
321.957
289.402
432.881
432.662
432.214
431.517
430.537
429.227
427.523
425.342
422.574
419.077
414.669
409.119
402.138
393.372
382.408
368.803
352.165
332.321
309.586
285.094
410.427
410.195
409.722
408.985
407.954
406.583
404.811
402.561
399.731
396.198
391.806
386.368
379.662
371.44
361.438
349.42
335.244
318.971
301.003
282.194
390.621
390.384
389.901
389.152
388.107
386.725
384.951
382.715
379.931
376.494
372.279
367.142
360.924
353.459
344.594
334.223
322.331
309.066
294.793
280.128
373.254
373.019
372.541
371.801
370.774
369.422
367.699
365.543
362.885
359.639
355.708
350.988
345.369
338.748
331.045
322.228
312.345
301.555
290.161
278.599
358.11
357.882
357.42
356.709
355.724
354.434
352.8
350.773
348.295
345.3
341.717
337.472
332.492
326.719
320.119
312.7
304.531
295.761
286.625
277.439
344.97
344.755
344.319
343.648
342.723
341.519
340.002
338.133
335.869
333.159
329.951
326.197
321.85
316.882
311.285
305.087
298.36
291.231
283.882
276.541
333.626
333.427
333.022
332.401
331.548
330.443
329.06
327.367
325.332
322.918
320.089
316.813
313.065
308.832
304.123
298.972
293.448
287.653
281.727
275.838
323.878
323.695
323.325
322.76
321.987
320.989
319.746
318.235
316.432
314.31
311.846
309.019
305.818
302.241
298.304
294.042
289.514
284.804
280.019
275.281
315.537
315.372
315.04
314.533
313.841
312.952
311.85
310.519
308.94
307.096
304.972
302.556
299.845
296.843
293.568
290.053
286.349
282.523
278.654
274.836
308.432
308.286
307.99
307.541
306.929
306.147
305.182
304.022
302.654
301.068
299.253
297.205
294.925
292.419
289.708
286.819
283.794
280.687
277.559
274.48
302.405
302.276
302.017
301.623
301.089
300.408
299.571
298.57
297.397
296.044
294.506
292.782
290.876
288.796
286.559
284.192
281.727
279.206
276.677
274.193
297.314
297.202
296.976
296.635
296.173
295.585
294.867
294.011
293.013
291.868
290.574
289.132
287.547
285.828
283.99
282.055
280.05
278.008
275.965
273.962
293.03
292.934
292.74
292.446
292.05
291.548
290.936
290.211
289.368
288.406
287.324
286.125
284.814
283.399
281.894
280.317
278.69
277.038
275.389
273.775
289.441
289.358
289.193
288.943
288.606
288.181
287.664
287.053
286.346
285.543
284.644
283.652
282.573
281.413
280.186
278.904
277.586
276.251
274.923
273.624
286.445
286.375
286.235
286.024
285.74
285.382
284.949
284.438
283.849
283.183
282.44
281.623
280.739
279.792
278.794
277.755
276.69
275.614
274.545
273.501
283.954
283.896
283.778
283.601
283.364
283.065
282.703
282.279
281.792
281.242
280.631
279.962
279.24
278.47
277.661
276.821
275.963
275.098
274.24
273.402
281.892
281.843
281.745
281.598
281.4
281.152
280.853
280.503
280.101
279.65
279.151
278.605
278.018
277.395
276.741
276.064
275.374
274.68
273.992
273.322
280.191
280.151
280.069
279.947
279.784
279.58
279.334
279.046
278.718
278.349
277.942
277.5
277.024
276.521
275.995
275.451
274.898
274.342
273.793
273.257
278.794
278.76
278.694
278.593
278.459
278.292
278.09
277.856
277.588
277.289
276.959
276.601
276.218
275.813
275.391
274.956
274.513
274.07
273.632
273.205
277.65
277.623
277.568
277.486
277.377
277.24
277.077
276.886
276.669
276.427
276.161
275.873
275.566
275.241
274.903
274.556
274.203
273.85
273.502
273.163
276.718
276.696
276.652
276.585
276.496
276.386
276.253
276.099
275.924
275.729
275.516
275.285
275.039
274.78
274.511
274.234
273.954
273.674
273.398
273.129
275.962
275.944
275.908
275.854
275.782
275.693
275.586
275.463
275.322
275.166
274.995
274.811
274.615
274.409
274.195
273.976
273.754
273.533
273.314
273.102
275.35
275.336
275.307
275.264
275.206
275.134
275.049
274.95
274.838
274.713
274.577
274.431
274.275
274.112
273.943
273.77
273.595
273.42
273.248
273.08
274.858
274.846
274.823
274.788
274.742
274.685
274.617
274.538
274.449
274.35
274.242
274.126
274.003
273.875
273.741
273.605
273.467
273.33
273.194
273.063
274.462
274.453
274.435
274.407
274.371
274.325
274.271
274.209
274.138
274.06
273.975
273.884
273.787
273.685
273.581
273.474
273.366
273.258
273.152
273.049
274.147
274.14
274.125
274.103
274.074
274.038
273.996
273.946
273.891
273.829
273.762
273.691
273.615
273.535
273.453
273.37
273.285
273.201
273.119
273.038
273.896
273.89
273.879
273.862
273.839
273.811
273.777
273.738
273.695
273.646
273.594
273.538
273.479
273.417
273.353
273.288
273.222
273.157
273.092
273.03
273.697
273.693
273.684
273.67
273.652
273.63
273.604
273.574
273.54
273.502
273.461
273.417
273.371
273.323
273.273
273.223
273.172
273.121
273.072
273.023
273.54
273.537
273.53
273.519
273.505
273.488
273.468
273.444
273.418
273.388
273.357
273.323
273.287
273.25
273.211
273.172
273.133
273.094
273.055
273.018
273.417
273.415
273.409
273.401
273.39
273.377
273.361
273.343
273.322
273.299
273.275
273.249
273.221
273.192
273.163
273.133
273.102
273.072
273.042
273.014
273.321
273.319
273.315
273.308
273.3
273.29
273.277
273.263
273.248
273.23
273.211
273.191
273.17
273.148
273.125
273.102
273.078
273.055
273.033
273.011
273.246
273.245
273.242
273.237
273.23
273.222
273.213
273.202
273.19
273.176
273.162
273.146
273.13
273.113
273.096
273.078
273.06
273.042
273.025
273.008
273.189
273.187
273.185
273.181
273.176
273.17
273.163
273.154
273.145
273.135
273.124
273.112
273.099
273.086
273.073
273.059
273.046
273.032
273.019
273.006
273.144
273.143
273.142
273.139
273.135
273.13
273.125
273.118
273.111
273.103
273.095
273.085
273.076
273.066
273.056
273.045
273.035
273.025
273.015
273.005
273.111
273.11
273.109
273.106
273.103
273.1
273.096
273.091
273.085
273.079
273.072
273.065
273.058
273.051
273.043
273.035
273.027
273.019
273.011
273.004
273.086
273.085
273.084
273.082
273.08
273.077
273.074
273.07
273.066
273.061
273.056
273.051
273.045
273.039
273.033
273.027
273.021
273.015
273.009
273.003
273.068
273.067
273.066
273.065
273.063
273.061
273.058
273.055
273.052
273.048
273.044
273.04
273.035
273.031
273.026
273.021
273.016
273.011
273.007
273.002
273.055
273.055
273.054
273.053
273.051
273.049
273.047
273.045
273.042
273.039
273.036
273.032
273.029
273.025
273.021
273.017
273.013
273.009
273.005
273.002
273.047
273.047
273.046
273.045
273.044
273.042
273.04
273.038
273.036
273.033
273.031
273.028
273.024
273.021
273.018
273.015
273.011
273.008
273.005
273.002
273.043
273.043
273.042
273.041
273.04
273.039
273.037
273.035
273.033
273.031
273.028
273.025
273.022
273.019
273.016
273.013
273.01
273.007
273.004
273.001
)
;

boundaryField
{
    topWall
    {
        type            zeroGradient;
    }
    bottomWall
    {
        type            codedFixedValue;
        value           uniform 633;
        name            heating;
        code            #{
            const scalar t = this->db().time().value();
            const scalar Ttemp = 273 + 10*t;
            operator==(Ttemp);
        #};
    }
    sideWallL
    {
        type            symmetry;
    }
    sideWallR
    {
        type            fixedValue;
        value           uniform 273;
    }
    frontAndBack
    {
        type            empty;
    }
}


// ************************************************************************* //
