/*--------------------------------*- C++ -*----------------------------------*\
  =========                 |
  \\      /  F ield         | OpenFOAM: The Open Source CFD Toolbox
   \\    /   O peration     | Website:  https://openfoam.org
    \\  /    A nd           | Version:  7
     \\/     M anipulation  |
\*---------------------------------------------------------------------------*/
FoamFile
{
    version     2.0;
    format      ascii;
    class       volScalarField;
    location    "16";
    object      gradTx;
}
// * * * * * * * * * * * * * * * * * * * * * * * * * * * * * * * * * * * * * //

dimensions      [0 -1 0 1 0 0 0];

internalField   nonuniform List<scalar> 
900
(
-9.69166
-30.1904
-54.1747
-84.4546
-124.655
-179.732
-256.748
-366.09
-523.485
-753.512
-1096.02
-1618.65
-2443.25
-3807.29
-6224.35
-10963.2
-21678.1
-50610
-143799
-480206
-27.8804
-86.8205
-155.687
-242.454
-357.358
-514.313
-732.992
-1042.06
-1484.43
-2126.05
-3071.55
-4492.92
-6685.12
-10179.4
-15985.6
-26125.1
-44789.6
-80528.7
-147885
-250510
-43.7858
-136.262
-244.03
-379.29
-557.562
-799.705
-1134.81
-1604.53
-2269.89
-3222.14
-4600.76
-6623.86
-9640.46
-14220.8
-21307.7
-32444.7
-50002.3
-76893.5
-113811
-148923
-56.5532
-175.833
-314.321
-487.195
-713.52
-1018.51
-1436.65
-2016.18
-2825.71
-3964.16
-5575.68
-7872.1
-11165.5
-15911.7
-22755.6
-32535
-46109.4
-63673.8
-82961.2
-96222.3
-65.6664
-203.936
-363.729
-561.854
-819.095
-1162.39
-1627.72
-2264
-3138.38
-4343.54
-6007.29
-8304.49
-11469.6
-15803.7
-21658.4
-29358.4
-38983.7
-49906.5
-60058.6
-65448.7
-70.9823
-220.156
-391.634
-602.599
-873.912
-1232.01
-1711.23
-2356.77
-3228.26
-4404.04
-5985.68
-8101.39
-10905.3
-14565.8
-19229.9
-24942.4
-31494.4
-38196.2
-43664.9
-45942.9
-72.7013
-225.164
-399.402
-611.945
-882.464
-1235.27
-1701
-2318.56
-3137.1
-4217.8
-5634.69
-7472.94
-9821.95
-12758.3
-16312.2
-20409.1
-24786.3
-28904.3
-31923.9
-32880.3
-71.2919
-220.466
-389.898
-594.729
-852.602
-1184.74
-1617.07
-2181.22
-2915.34
-3864.22
-5077.93
-6607.94
-8498.7
-10772.2
-13403.3
-16284.3
-19186.6
-21735.5
-23438.1
-23807.4
-67.3921
-208.084
-366.875
-557.078
-793.877
-1095.03
-1481.51
-1977.88
-2612.32
-3415.77
-4419.79
-5652.26
-7129.82
-8846.4
-10757.2
-12760.1
-14680.7
-16272.1
-17246.9
-17352.1
-61.7083
-190.24
-334.387
-505.458
-716.067
-980.555
-1315.26
-1738.54
-2270.31
-2930.85
-3738.59
-4706.27
-5835.22
-7107.58
-8476.97
-9859.87
-11131.6
-12133.3
-12696.7
-12686.4
-54.9302
-169.085
-296.311
-445.924
-628.093
-854.051
-1136.14
-1487.61
-1921.99
-2451.9
-3087.07
-3831.39
-4678.88
-5608.83
-6580.9
-7531.61
-8374.92
-9009.73
-9336.42
-9280.93
-47.6684
-146.515
-256.01
-383.63
-537.359
-725.766
-957.927
-1243.12
-1590.21
-2006.58
-2496.61
-3059.5
-3686.66
-4358.86
-5043.86
-5695.48
-6255.53
-6659.84
-6848.87
-6781.14
-40.4184
-124.055
-216.159
-322.592
-449.479
-603.209
-790.296
-1017.07
-1289.12
-1610.47
-1982.4
-2402.01
-2860.59
-3342.04
-3821.88
-4267.4
-4639.71
-4898.08
-5006.55
-4941.47
-33.5475
-102.827
-178.695
-265.649
-368.294
-491.299
-639.241
-816.331
-1025.96
-1270.08
-1548.36
-1857.29
-2189.15
-2531.24
-2865.6
-3169.49
-3417.08
-3582.49
-3643.79
-3587.31
-27.2984
-83.5662
-144.86
-214.564
-296.08
-392.756
-507.75
-643.798
-802.866
-985.701
-1191.28
-1416.19
-1654.12
-1895.46
-2127.31
-2334.06
-2498.66
-2604.6
-2638.42
-2592.11
-21.8059
-66.6724
-115.304
-170.204
-233.841
-308.579
-396.562
-499.523
-618.542
-753.719
-903.819
-1065.91
-1235.05
-1404.16
-1564.15
-1704.41
-1813.71
-1881.52
-1899.49
-1862.91
-17.1177
-52.2796
-90.2145
-132.745
-181.637
-238.534
-304.867
-381.712
-469.612
-568.361
-676.777
-792.48
-911.748
-1029.48
-1139.35
-1234.19
-1306.64
-1349.95
-1358.95
-1330.84
-13.2178
-40.3268
-69.4468
-101.885
-138.886
-181.579
-230.904
-287.512
-351.641
-422.97
-500.479
-582.326
-665.773
-747.204
-822.271
-886.169
-934.073
-961.669
-965.72
-944.564
-10.0477
-30.6254
-52.6403
-77.0172
-104.622
-136.219
-172.421
-213.609
-259.855
-310.827
-365.7
-423.092
-481.03
-536.99
-588.007
-630.881
-662.459
-679.978
-681.413
-665.774
-7.52437
-22.9137
-39.3162
-57.3774
-77.6925
-100.774
-127.014
-156.629
-189.61
-225.66
-264.141
-304.04
-343.962
-382.166
-416.647
-445.285
-466.025
-477.1
-477.241
-465.857
-5.55429
-16.9003
-28.9513
-42.1525
-56.9081
-73.5581
-92.3493
-113.402
-136.671
-161.912
-188.648
-216.153
-243.453
-269.359
-292.529
-311.563
-325.129
-332.097
-331.671
-323.498
-4.04362
-12.2943
-21.0295
-30.5526
-41.1353
-53.0004
-66.302
-81.1026
-97.3489
-114.849
-133.256
-152.057
-170.583
-188.029
-203.504
-216.089
-224.922
-229.282
-228.671
-222.879
-2.90463
-8.82506
-15.0746
-21.8577
-29.3548
-37.7107
-47.0203
-57.3138
-68.5409
-80.5575
-93.1155
-105.86
-118.334
-130.001
-140.27
-148.544
-154.266
-156.979
-156.37
-152.315
-2.05951
-6.25329
-10.6681
-15.4401
-20.6881
-26.5052
-32.9491
-40.0325
-47.7132
-55.8859
-64.3766
-72.9424
-81.2765
-89.0218
-95.7918
-101.199
-104.886
-106.563
-106.035
-103.229
-1.44192
-4.37546
-7.45577
-10.7727
-14.4037
-18.4078
-22.8199
-27.6438
-32.8461
-38.352
-44.0414
-49.75
-55.2738
-60.3777
-64.8103
-68.3216
-70.684
-71.7139
-71.2903
-69.3695
-0.997125
-3.02408
-5.14747
-7.42595
-9.90946
-12.6353
-15.6241
-18.8755
-22.3646
-26.0389
-29.817
-33.5892
-37.2209
-40.5587
-43.4404
-45.7056
-47.2101
-47.8382
-47.5149
-46.2146
-0.681254
-2.06505
-3.51156
-5.05868
-6.73832
-8.57379
-10.5771
-12.7464
-15.0636
-17.4927
-19.9791
-22.4503
-24.8185
-26.9845
-28.8442
-30.2957
-31.2477
-31.6279
-31.3901
-30.5192
-0.459961
-1.3936
-2.3676
-3.40622
-4.52965
-5.75232
-7.08117
-8.51397
-10.0379
-11.6288
-13.2503
-14.8553
-16.3868
-17.7813
-18.9724
-19.8959
-20.4944
-20.7228
-20.5528
-19.9756
-0.306955
-0.929615
-1.578
-2.26746
-3.01069
-3.81652
-4.6889
-5.62578
-6.61836
-7.65045
-8.69842
-9.73169
-10.7138
-11.6044
-12.3615
-12.9447
-13.3184
-13.4546
-13.3359
-12.9573
-0.202512
-0.613063
-1.03984
-1.4925
-1.9789
-2.50443
-3.07127
-3.6778
-4.31804
-4.98136
-5.6525
-6.31187
-6.93635
-7.50044
-7.97789
-8.3435
-8.57515
-8.65568
-8.57448
-8.32869
-0.132106
-0.399773
-0.677582
-0.971527
-1.28646
-1.62562
-1.9902
-2.37897
-2.78796
-3.21028
-3.63618
-4.05323
-4.44689
-4.80123
-5.09991
-5.32735
-5.46992
-5.51714
-5.46259
-5.30464
-0.0852216
-0.257806
-0.436666
-0.625495
-0.827252
-1.04387
-1.276
-1.52274
-1.78149
-2.04785
-2.31564
-2.57708
-2.82309
-3.0438
-3.22912
-3.3695
-3.4566
-3.48404
-3.44799
-3.34751
-0.0543743
-0.164436
-0.278346
-0.398356
-0.526256
-0.663192
-0.809497
-0.964553
-1.12668
-1.2931
-1.45993
-1.62235
-1.77475
-1.91105
-2.02509
-2.11104
-2.16385
-2.17966
-2.15619
-2.09291
-0.0343167
-0.103748
-0.175516
-0.250983
-0.331221
-0.416901
-0.508193
-0.604678
-0.705288
-0.808282
-0.911265
-1.01126
-1.10483
-1.18829
-1.25787
-1.31007
-1.34184
-1.35087
-1.3358
-1.29635
-0.0214257
-0.0647576
-0.109495
-0.156454
-0.206271
-0.259337
-0.315735
-0.375186
-0.437022
-0.500165
-0.563146
-0.624151
-0.681096
-0.731747
-0.77385
-0.80529
-0.824251
-0.829362
-0.819818
-0.795463
-0.0132351
-0.0399918
-0.0675861
-0.0965024
-0.127116
-0.159651
-0.194146
-0.230421
-0.268061
-0.306408
-0.344569
-0.381448
-0.415794
-0.446267
-0.471522
-0.490302
-0.501529
-0.504393
-0.498426
-0.48354
-0.00808961
-0.0244382
-0.0412813
-0.0589039
-0.0775249
-0.0972724
-0.118162
-0.140081
-0.162775
-0.185843
-0.208751
-0.230842
-0.251372
-0.269544
-0.284562
-0.295685
-0.302279
-0.30387
-0.300184
-0.291175
-0.00489326
-0.0147789
-0.0249539
-0.0355844
-0.0467968
-0.0586637
-0.071191
-0.0843075
-0.0978589
-0.111607
-0.125231
-0.138344
-0.150505
-0.161246
-0.1701
-0.176632
-0.180473
-0.181348
-0.179098
-0.1737
-0.00292985
-0.00884707
-0.014932
-0.0212807
-0.0279657
-0.0350276
-0.0424677
-0.0502423
-0.0582591
-0.0663763
-0.0744057
-0.0821193
-0.0892592
-0.0955525
-0.100727
-0.104531
-0.106751
-0.107227
-0.105869
-0.102665
-0.00173753
-0.00524566
-0.00885023
-0.0126062
-0.0165548
-0.0207187
-0.0250974
-0.0296644
-0.034365
-0.0391159
-0.0438072
-0.0483059
-0.0524627
-0.0561194
-0.0591192
-0.0613168
-0.0625894
-0.062846
-0.0620354
-0.060151
-0.00102241
-0.00308611
-0.00520486
-0.00740991
-0.00972455
-0.0121612
-0.0147192
-0.0173823
-0.0201186
-0.0228793
-0.0256008
-0.0282063
-0.0306096
-0.03272
-0.0344472
-0.0357085
-0.0364335
-0.0365706
-0.0360907
-0.0349906
-0.000600186
-0.00181132
-0.00305381
-0.00434538
-0.00569916
-0.00712198
-0.00861303
-0.0101627
-0.0117523
-0.0133534
-0.0149291
-0.0164353
-0.0178223
-0.019038
-0.0200309
-0.0207535
-0.0211659
-0.0212386
-0.0209554
-0.0203146
-0.000357404
-0.00107843
-0.00181755
-0.00258497
-0.00338817
-0.00423097
-0.00511266
-0.00602746
-0.00696417
-0.00790613
-0.00883168
-0.00971491
-0.0105269
-0.0112374
-0.0118164
-0.0122363
-0.0124743
-0.0125131
-0.0123437
-0.011965
-0.000226308
-0.000682741
-0.00115028
-0.00163516
-0.00214192
-0.0026728
-0.00322724
-0.00380153
-0.00438858
-0.00497796
-0.00555614
-0.00610701
-0.00661263
-0.00705423
-0.00741332
-0.00767295
-0.00781893
-0.00784086
-0.00773306
-0.00749507
-0.000169161
-0.000510267
-0.000859476
-0.00122133
-0.00159911
-0.00199439
-0.00240671
-0.00283323
-0.00326868
-0.00370533
-0.00413316
-0.0045403
-0.00491354
-0.00523907
-0.00550336
-0.00569397
-0.00580052
-0.00581544
-0.0057346
-0.00555771
)
;

boundaryField
{
    topWall
    {
        type            calculated;
        value           nonuniform List<scalar> 
20
(
-0.000169161
-0.000510267
-0.000859476
-0.00122133
-0.00159911
-0.00199439
-0.00240671
-0.00283323
-0.00326868
-0.00370533
-0.00413316
-0.0045403
-0.00491354
-0.00523907
-0.00550336
-0.00569397
-0.00580052
-0.00581544
-0.0057346
-0.00555771
)
;
    }
    bottomWall
    {
        type            calculated;
        value           nonuniform List<scalar> 
20
(
-9.69166
-30.1904
-54.1747
-84.4546
-124.655
-179.732
-256.748
-366.09
-523.485
-753.512
-1096.02
-1618.65
-2443.25
-3807.29
-6224.35
-10963.2
-21678.1
-50610
-143799
-480206
)
;
    }
    sideWallL
    {
        type            symmetry;
    }
    sideWallR
    {
        type            calculated;
        value           nonuniform List<scalar> 
45
(
-744820
-309346
-163272
-99925.3
-66330.4
-46016.1
-32724
-23604
-17160.9
-12524.7
-9150.8
-6679.47
-4863.6
-3528.57
-2548.34
-1830.67
-1307.33
-927.589
-653.633
-457.256
-317.461
-218.681
-149.422
-101.254
-68.0345
-45.3203
-29.9257
-19.5854
-12.7032
-8.16479
-5.19992
-3.28124
-2.05137
-1.27056
-0.779605
-0.473882
-0.28535
-0.170219
-0.100605
-0.0589423
-0.0342867
-0.0199054
-0.0117237
-0.00734381
-0.00544547
)
;
    }
    frontAndBack
    {
        type            empty;
    }
}


// ************************************************************************* //
