/*--------------------------------*- C++ -*----------------------------------*\
  =========                 |
  \\      /  F ield         | OpenFOAM: The Open Source CFD Toolbox
   \\    /   O peration     | Website:  https://openfoam.org
    \\  /    A nd           | Version:  7
     \\/     M anipulation  |
\*---------------------------------------------------------------------------*/
FoamFile
{
    version     2.0;
    format      ascii;
    class       volScalarField;
    location    "16";
    object      gradTy;
}
// * * * * * * * * * * * * * * * * * * * * * * * * * * * * * * * * * * * * * //

dimensions      [0 -1 0 1 0 0 0];

internalField   nonuniform List<scalar> 
900
(
-139075
-139112
-139192
-139322
-139519
-139804
-140213
-140794
-141621
-142802
-144500
-146969
-150612
-156098
-164599
-178308
-201687
-244775
-332826
-536459
-117984
-118018
-118090
-118208
-118385
-118641
-119005
-119519
-120243
-121265
-122712
-124770
-127717
-131967
-138131
-147051
-159612
-175375
-185896
-145387
-99615.8
-99644.5
-99704.8
-99803.1
-99949.6
-100159
-100454
-100863
-101428
-102204
-103266
-104708
-106645
-109189
-112377
-115959
-118787
-117278
-101932
-52355.1
-83655.3
-83677.2
-83723
-83796.9
-83905.5
-84058.4
-84268.2
-84551.3
-84927.7
-85419.8
-86049.1
-86826.3
-87729.7
-88655.5
-89312.6
-89006.2
-86226.3
-77987.6
-59239.3
-24235.3
-69835.3
-69849.7
-69879.6
-69927
-69995
-70087.4
-70208.5
-70362
-70549.1
-70764.5
-70989
-71174.5
-71218.2
-70914.3
-69872.3
-67388.7
-62279.7
-52773.7
-36802.1
-13477.3
-57922.2
-57929.2
-57943.4
-57964.9
-57993.5
-58028.3
-58066.4
-58101.5
-58120.9
-58100.3
-57995.2
-57727.7
-57163.7
-56080
-54118.3
-50733.7
-45169
-36536.3
-24166.9
-8401.6
-47708.4
-47708.7
-47708.7
-47706.9
-47700.8
-47685.6
-47653.5
-47591.5
-47478
-47278.6
-46938.2
-46370.8
-45444.7
-43964.2
-41651.2
-38137.6
-32993.1
-25829.8
-16532.5
-5603.02
-39006.1
-39000.8
-38989.1
-38968.3
-38934.2
-38879.7
-38794
-38660.2
-38453.3
-38135.5
-37651.3
-36920.6
-35830.6
-34228.4
-31918.6
-28673.4
-24269.6
-18567.8
-11637.4
-3890.77
-31643.9
-31634.3
-31613.7
-31578.8
-31524.4
-31442.2
-31320.2
-31140.4
-30877.5
-30495.4
-29944.2
-29156.1
-28042.5
-26492.6
-24377.8
-21566.3
-17953.3
-13511.2
-8351.16
-2769.83
-25463.2
-25450.7
-25424.2
-25380.1
-25313
-25214.4
-25072
-24869
-24581.8
-24178.7
-23617.9
-22846
-21797
-20395
-18559.5
-16218.7
-13331
-9912.98
-6068.62
-2002.52
-20317.4
-20303.4
-20273.7
-20225
-20151.8
-20046.3
-19897.1
-19688.9
-19401.6
-19008.8
-18477.4
-17766.9
-16830.6
-15618.3
-14081.9
-12185.2
-9917.48
-7309.11
-4443.97
-1461.3
-16070.9
-16056.4
-16025.8
-15976.2
-15902.5
-15797.6
-15651.7
-15451.7
-15181.1
-14818.9
-14339.7
-13714.2
-12910.3
-11895.9
-10643.5
-9136.89
-7379.3
-5401.68
-3267.65
-1071.8
-12598.7
-12584.6
-12555
-12507.3
-12437
-12338.2
-12202.6
-12019.5
-11775.8
-11455.3
-11039.3
-10507
-9837.05
-9009.5
-8009.44
-6831.24
-5483.44
-3992.8
-2406.1
-787.726
-9786.77
-9773.65
-9746.28
-9702.35
-9638.26
-9548.95
-9427.8
-9266.41
-9054.53
-8780.15
-8429.76
-7989.03
-7443.94
-6782.56
-5997.37
-5088
-4064.03
-2946.95
-1770.55
-578.815
-7531.93
-7520.19
-7495.77
-7456.8
-7400.33
-7322.34
-7217.61
-7079.66
-6900.8
-6672.24
-6384.44
-6027.7
-5593.06
-5073.6
-4465.98
-3772.15
-3000.91
-2168.78
-1299.93
-424.474
-5741.98
-5731.8
-5710.7
-5677.16
-5628.88
-5562.72
-5474.66
-5359.83
-5212.57
-5026.58
-4795.23
-4512.08
-4171.52
-3769.7
-3305.54
-2781.74
-2205.67
-1589.72
-951.018
-310.254
-4335.63
-4327.04
-4309.29
-4281.19
-4240.97
-4186.23
-4113.97
-4020.57
-3901.96
-3753.67
-3571.21
-3350.33
-3087.63
-2781.06
-2430.67
-2039.18
-1612.43
-1159.54
-692.578
-225.77
-3242.14
-3235.07
-3220.48
-3197.49
-3164.76
-3120.48
-3062.44
-2988.03
-2894.34
-2778.28
-2636.8
-2467.2
-2267.41
-2036.48
-1774.93
-1485.14
-1171.62
-840.961
-501.64
-163.423
-2400.82
-2395.13
-2383.41
-2365
-2338.9
-2303.8
-2258.1
-2199.91
-2127.21
-2037.88
-1929.9
-1801.54
-1651.62
-1479.73
-1286.58
-1074.11
-845.693
-606.062
-361.124
-117.583
-1760.37
-1755.88
-1746.65
-1732.19
-1711.78
-1684.48
-1649.12
-1604.41
-1548.92
-1481.22
-1400
-1304.17
-1193.06
-1066.59
-925.431
-771.115
-606.113
-433.785
-258.232
-84.043
-1278.02
-1274.54
-1267.4
-1256.25
-1240.58
-1219.7
-1192.8
-1158.99
-1117.28
-1066.73
-1006.47
-935.84
-854.485
-762.461
-660.348
-549.317
-431.152
-308.214
-183.334
-59.6437
-918.624
-915.974
-910.549
-902.097
-890.254
-874.544
-854.406
-829.215
-798.318
-761.085
-716.964
-665.552
-606.67
-540.433
-467.312
-388.174
-304.292
-217.311
-129.174
-42.0098
-653.707
-651.723
-647.666
-641.361
-632.553
-620.914
-606.058
-587.561
-564.988
-537.926
-506.025
-469.046
-426.91
-379.74
-327.902
-272.028
-213.012
-151.992
-90.2937
-29.3566
-460.531
-459.068
-456.081
-451.449
-444.996
-436.498
-425.693
-412.298
-396.023
-376.603
-353.818
-327.529
-297.708
-264.468
-228.085
-189.009
-147.863
-105.426
-62.5981
-20.3469
-321.182
-320.119
-317.953
-314.599
-309.938
-303.82
-296.069
-286.495
-274.912
-261.146
-245.065
-226.587
-205.711
-182.531
-157.248
-130.18
-101.755
-72.5039
-43.0305
-13.9835
-221.743
-220.982
-219.432
-217.038
-213.718
-209.373
-203.884
-197.13
-188.987
-179.347
-168.128
-155.285
-140.828
-124.83
-107.435
-88.8637
-69.409
-49.4274
-29.3231
-9.5272
-151.547
-151.01
-149.916
-148.23
-145.897
-142.85
-139.014
-134.307
-128.652
-121.98
-114.242
-105.414
-95.5079
-84.5795
-72.7304
-60.1116
-46.9207
-33.3958
-19.8053
-6.43372
-102.526
-102.152
-101.391
-100.218
-98.5997
-96.4908
-93.8424
-90.6026
-86.7217
-82.1573
-76.8795
-70.8766
-64.1608
-56.7719
-48.7806
-40.2892
-31.4297
-22.3599
-13.2563
-4.30563
-68.6612
-68.4038
-67.8807
-67.076
-65.967
-64.5253
-62.7191
-60.5154
-57.8829
-54.7955
-51.2355
-47.1976
-42.6921
-37.7472
-32.4113
-26.7527
-20.8589
-14.8335
-8.79175
-2.85515
-45.5169
-45.342
-44.987
-44.4416
-43.6911
-42.7174
-41.5002
-40.0187
-38.2534
-36.1883
-33.8132
-31.1261
-28.1348
-24.8591
-21.3316
-17.5976
-13.7143
-9.74911
-5.77682
-1.87582
-29.8688
-29.7515
-29.5135
-29.1483
-28.6465
-27.9967
-27.186
-26.2014
-25.0309
-23.6648
-22.0974
-20.328
-18.3626
-16.2147
-13.9059
-11.4659
-8.93193
-6.34738
-3.7603
-1.22089
-19.402
-19.3242
-19.1666
-18.925
-18.5935
-18.1648
-17.631
-16.9841
-16.2166
-15.3228
-14.2994
-13.1466
-11.8686
-10.4744
-8.97837
-7.39961
-5.76206
-4.09354
-2.42459
-0.787137
-12.4756
-12.4247
-12.3215
-12.1635
-11.947
-11.6675
-11.32
-10.8997
-10.402
-9.82349
-9.16241
-8.41912
-7.5966
-6.70086
-5.74109
-4.72961
-3.68166
-2.61485
-1.54849
-0.502669
-7.9408
-7.90785
-7.84112
-7.739
-7.59922
-7.41901
-7.19536
-6.92525
-6.606
-6.23559
-5.81306
-5.33881
-4.81486
-4.24515
-3.63556
-2.99391
-2.32981
-1.65431
-0.979506
-0.317941
-5.00334
-4.98226
-4.93958
-4.87433
-4.7851
-4.67022
-4.52785
-4.35617
-4.15359
-3.91895
-3.65172
-3.35225
-3.02191
-2.66321
-2.27989
-1.87686
-1.46012
-1.03655
-0.61364
-0.19917
-3.12069
-3.10736
-3.08037
-3.03914
-2.98282
-2.9104
-2.82076
-2.71283
-2.58565
-2.43858
-2.27133
-2.08418
-1.87802
-1.65446
-1.41582
-1.16517
-0.906216
-0.643199
-0.380724
-0.123564
-1.9268
-1.91846
-1.90159
-1.87582
-1.84067
-1.79551
-1.73968
-1.67255
-1.59357
-1.50235
-1.39877
-1.28301
-1.15566
-1.01772
-0.87064
-0.716299
-0.556971
-0.395244
-0.233925
-0.0759159
-1.1776
-1.17244
-1.16201
-1.14609
-1.12439
-1.09653
-1.06214
-1.02084
-0.972302
-0.916321
-0.852835
-0.781976
-0.704112
-0.619864
-0.53012
-0.436029
-0.338967
-0.2405
-0.142324
-0.0461861
-0.712301
-0.709145
-0.702767
-0.693041
-0.679789
-0.662799
-0.641844
-0.616706
-0.587201
-0.553212
-0.51471
-0.471788
-0.424673
-0.373746
-0.319546
-0.262765
-0.204231
-0.144882
-0.0857294
-0.0278191
-0.426175
-0.424268
-0.420414
-0.414541
-0.406543
-0.396299
-0.383677
-0.368551
-0.350817
-0.33041
-0.30732
-0.281605
-0.253407
-0.222956
-0.190575
-0.156676
-0.121752
-0.0863584
-0.0510952
-0.0165796
-0.251756
-0.250619
-0.248322
-0.244822
-0.240061
-0.233967
-0.226464
-0.217482
-0.206962
-0.194869
-0.1812
-0.165991
-0.149329
-0.131351
-0.112248
-0.0922627
-0.0716846
-0.0508392
-0.0300772
-0.00975923
-0.145979
-0.145314
-0.143972
-0.141927
-0.139147
-0.135591
-0.131216
-0.125984
-0.119862
-0.11283
-0.104888
-0.0960606
-0.086397
-0.0759779
-0.0649144
-0.053347
-0.0414423
-0.0293878
-0.0173849
-0.00564073
-0.081494
-0.0811201
-0.0803654
-0.0792166
-0.0776552
-0.0756594
-0.073206
-0.0702736
-0.0668448
-0.0629099
-0.0584694
-0.0535369
-0.0481411
-0.0423273
-0.0361574
-0.0297097
-0.0230769
-0.0163628
-0.00967908
-0.00314041
-0.0408141
-0.0406259
-0.0402459
-0.0396678
-0.0388823
-0.0378787
-0.0366457
-0.0351728
-0.0334515
-0.0314773
-0.0292507
-0.0267788
-0.0240761
-0.0211654
-0.0180778
-0.0148524
-0.0115354
-0.00817863
-0.00483768
-0.00156956
-0.0123547
-0.0122975
-0.0121822
-0.0120067
-0.0117684
-0.0114639
-0.01109
-0.0106434
-0.0101217
-0.00952348
-0.00884903
-0.0081005
-0.00728232
-0.00640141
-0.00546717
-0.00449145
-0.00348818
-0.00247304
-0.00146277
-0.000474584
)
;

boundaryField
{
    topWall
    {
        type            calculated;
        value           uniform 0;
    }
    bottomWall
    {
        type            calculated;
        value           nonuniform List<scalar> 
20
(
-150344
-150382
-150464
-150599
-150802
-151098
-151521
-152125
-152985
-154219
-156000
-158603
-162474
-168376
-177703
-193273
-221556
-279986
-423996
-855180
)
;
    }
    sideWallL
    {
        type            symmetry;
    }
    sideWallR
    {
        type            calculated;
        value           nonuniform List<scalar> 
45
(
-536459
-145387
-52355.1
-24235.3
-13477.3
-8401.6
-5603.02
-3890.77
-2769.83
-2002.52
-1461.3
-1071.8
-787.726
-578.815
-424.474
-310.254
-225.77
-163.423
-117.583
-84.043
-59.6437
-42.0098
-29.3566
-20.3469
-13.9835
-9.5272
-6.43372
-4.30563
-2.85515
-1.87582
-1.22089
-0.787137
-0.502669
-0.317941
-0.19917
-0.123564
-0.0759159
-0.0461861
-0.0278191
-0.0165796
-0.00975923
-0.00564073
-0.00314041
-0.00156956
-0.000474584
)
;
    }
    frontAndBack
    {
        type            empty;
    }
}


// ************************************************************************* //
