/*--------------------------------*- C++ -*----------------------------------*\
  =========                 |
  \\      /  F ield         | OpenFOAM: The Open Source CFD Toolbox
   \\    /   O peration     | Website:  https://openfoam.org
    \\  /    A nd           | Version:  7
     \\/     M anipulation  |
\*---------------------------------------------------------------------------*/
FoamFile
{
    version     2.0;
    format      ascii;
    class       volScalarField;
    location    "16";
    object      rhoc;
}
// * * * * * * * * * * * * * * * * * * * * * * * * * * * * * * * * * * * * * //

dimensions      [1 -3 0 0 0 0 0];

internalField   nonuniform List<scalar> 
900
(
3.64145e-15
3.63931e-15
3.63476e-15
3.62726e-15
3.61588e-15
3.59923e-15
3.57527e-15
3.54103e-15
3.49225e-15
3.4228e-15
3.32391e-15
3.18303e-15
2.98245e-15
2.69788e-15
2.29832e-15
1.75279e-15
1.06293e-15
3.68643e-16
2.37648e-17
1.96385e-21
2.69121e-17
2.68608e-17
2.67522e-17
2.65738e-17
2.63052e-17
2.59162e-17
2.53643e-17
2.45916e-17
2.35218e-17
2.20598e-17
2.00958e-17
1.75247e-17
1.4291e-17
1.04795e-17
6.45081e-18
2.93148e-18
7.6001e-19
6.43269e-20
4.87186e-22
1.76025e-26
2.63748e-19
2.62874e-19
2.61029e-19
2.58016e-19
2.53515e-19
2.47075e-19
2.38089e-19
2.25796e-19
2.09316e-19
1.87775e-19
1.6059e-19
1.27987e-19
9.1758e-20
5.59392e-20
2.64414e-20
8.28897e-21
1.31412e-21
6.5672e-23
4.7936e-25
2.66086e-28
3.65658e-21
3.63955e-21
3.60374e-21
3.54557e-21
3.45946e-21
3.33776e-21
3.17082e-21
2.94769e-21
2.65782e-21
2.29471e-21
1.86198e-21
1.38148e-21
8.99776e-22
4.83871e-22
1.9579e-22
5.17769e-23
7.26031e-24
4.05556e-25
6.83194e-27
4.79025e-29
7.55307e-23
7.50943e-23
7.41796e-23
7.27022e-23
7.05337e-23
6.75045e-23
6.34141e-23
5.80589e-23
5.12883e-23
4.31001e-23
3.37727e-23
2.39892e-23
1.48425e-23
7.56278e-24
2.93597e-24
7.824e-25
1.25882e-25
1.08235e-26
5.01724e-28
2.08486e-29
2.41172e-24
2.39593e-24
2.36296e-24
2.30996e-24
2.23273e-24
2.12592e-24
1.98353e-24
1.80012e-24
1.57289e-24
1.3048e-24
1.00818e-24
7.07096e-25
4.34921e-25
2.24299e-25
9.16909e-26
2.78545e-26
5.92592e-27
8.70029e-28
9.98362e-29
1.31758e-29
1.21627e-25
1.20791e-25
1.1905e-25
1.16263e-25
1.12225e-25
1.06682e-25
9.93589e-26
9.00285e-26
7.86105e-26
6.53154e-26
5.07908e-26
3.61856e-26
2.29988e-26
1.2633e-26
5.79259e-27
2.14939e-27
6.37727e-28
1.5711e-28
3.65767e-29
1.00113e-29
9.76817e-27
9.70259e-27
9.56613e-27
9.34832e-27
9.03397e-27
8.60441e-27
8.03993e-27
7.32449e-27
6.45295e-27
5.4406e-27
4.33253e-27
3.20724e-27
2.16693e-27
1.31057e-27
6.97523e-28
3.24056e-28
1.33035e-28
5.05909e-29
1.94678e-29
8.42089e-30
1.24687e-27
1.23926e-27
1.22344e-27
1.19823e-27
1.16193e-27
1.11243e-27
1.04749e-27
9.65207e-28
8.64773e-28
7.47392e-28
6.17248e-28
4.81951e-28
3.51858e-28
2.37844e-28
1.48036e-28
8.51136e-29
4.60005e-29
2.42061e-29
1.30251e-29
7.52422e-30
2.49635e-28
2.48352e-28
2.45689e-28
2.41448e-28
2.35345e-28
2.27023e-28
2.16094e-28
2.02202e-28
1.85135e-28
1.64954e-28
1.42143e-28
1.17702e-28
9.3107e-29
7.00787e-29
5.01759e-29
3.4372e-29
2.28329e-29
1.50217e-29
1.00398e-29
6.98145e-30
7.57765e-29
7.5473e-29
7.48428e-29
7.38395e-29
7.23953e-29
7.04241e-29
6.78288e-29
6.45142e-29
6.04072e-29
5.54846e-29
4.98039e-29
4.35291e-29
3.69361e-29
3.03862e-29
2.42632e-29
1.88904e-29
1.44613e-29
1.10145e-29
8.46019e-30
6.63762e-30
3.2743e-29
3.26468e-29
3.2447e-29
3.2129e-29
3.16711e-29
3.10455e-29
3.02197e-29
2.916e-29
2.78367e-29
2.62309e-29
2.43439e-29
2.22049e-29
1.98765e-29
1.74525e-29
1.50467e-29
1.2775e-29
1.07338e-29
8.98458e-30
7.5487e-30
6.41329e-30
1.85418e-29
1.85033e-29
1.84232e-29
1.82959e-29
1.81125e-29
1.78618e-29
1.75305e-29
1.71039e-29
1.6568e-29
1.59119e-29
1.51302e-29
1.42271e-29
1.32182e-29
1.21318e-29
1.1007e-29
9.88942e-30
8.82415e-30
7.84948e-30
6.99186e-30
6.26412e-30
1.27017e-29
1.26833e-29
1.2645e-29
1.25842e-29
1.24968e-29
1.23773e-29
1.22192e-29
1.20155e-29
1.17588e-29
1.14427e-29
1.10628e-29
1.06182e-29
1.01129e-29
9.55632e-30
8.9635e-30
8.35397e-30
7.74956e-30
7.17166e-30
6.6386e-30
6.16374e-30
9.88504e-30
9.87504e-30
9.85431e-30
9.82139e-30
9.77412e-30
9.70963e-30
9.62445e-30
9.51466e-30
9.37619e-30
9.20524e-30
8.99883e-30
8.75548e-30
8.47591e-30
8.16353e-30
7.82469e-30
7.46846e-30
7.10589e-30
6.7489e-30
6.40892e-30
6.09572e-30
8.36648e-30
8.36056e-30
8.34831e-30
8.32888e-30
8.30104e-30
8.26314e-30
8.21319e-30
8.14891e-30
8.06791e-30
7.9679e-30
7.84693e-30
7.7038e-30
7.5384e-30
7.35203e-30
7.14761e-30
6.92965e-30
6.70406e-30
6.47759e-30
6.25723e-30
6.04949e-30
7.48296e-30
7.47925e-30
7.47157e-30
7.45942e-30
7.44205e-30
7.41847e-30
7.38748e-30
7.34771e-30
7.2977e-30
7.23603e-30
7.16148e-30
7.0732e-30
6.97092e-30
6.85518e-30
6.72742e-30
6.59006e-30
6.44637e-30
6.3003e-30
6.15612e-30
6.01805e-30
6.94189e-30
6.93947e-30
6.93447e-30
6.92658e-30
6.91533e-30
6.90011e-30
6.88017e-30
6.85466e-30
6.82268e-30
6.78336e-30
6.7359e-30
6.67975e-30
6.61469e-30
6.54096e-30
6.45931e-30
6.37112e-30
6.27829e-30
6.18318e-30
6.08842e-30
5.99669e-30
6.59915e-30
6.59754e-30
6.59421e-30
6.58897e-30
6.58152e-30
6.57146e-30
6.55834e-30
6.54162e-30
6.52073e-30
6.49512e-30
6.4643e-30
6.42792e-30
6.38582e-30
6.33811e-30
6.28525e-30
6.22802e-30
6.16759e-30
6.10537e-30
6.04301e-30
5.98223e-30
6.37736e-30
6.37627e-30
6.37402e-30
6.37049e-30
6.36549e-30
6.35877e-30
6.35002e-30
6.33892e-30
6.32511e-30
6.30824e-30
6.28801e-30
6.26419e-30
6.23668e-30
6.20557e-30
6.1711e-30
6.13378e-30
6.09431e-30
6.05358e-30
6.0126e-30
5.97247e-30
6.23199e-30
6.23125e-30
6.22973e-30
6.22734e-30
6.22397e-30
6.21945e-30
6.21359e-30
6.20618e-30
6.19699e-30
6.18582e-30
6.17247e-30
6.15681e-30
6.13877e-30
6.11841e-30
6.0959e-30
6.07153e-30
6.04576e-30
6.01913e-30
5.99229e-30
5.96593e-30
6.13611e-30
6.13561e-30
6.13457e-30
6.13296e-30
6.13068e-30
6.12764e-30
6.12371e-30
6.11876e-30
6.11265e-30
6.10525e-30
6.09644e-30
6.08613e-30
6.07431e-30
6.06099e-30
6.04629e-30
6.03041e-30
6.01362e-30
5.99628e-30
5.97878e-30
5.96156e-30
6.07274e-30
6.0724e-30
6.0717e-30
6.07061e-30
6.06908e-30
6.06704e-30
6.06441e-30
6.06111e-30
6.05706e-30
6.05217e-30
6.04637e-30
6.03961e-30
6.03188e-30
6.02319e-30
6.01363e-30
6.00332e-30
5.99243e-30
5.98119e-30
5.96984e-30
5.95867e-30
6.03092e-30
6.03069e-30
6.03022e-30
6.02949e-30
6.02846e-30
6.0271e-30
6.02535e-30
6.02317e-30
6.02049e-30
6.01728e-30
6.01348e-30
6.00906e-30
6.00403e-30
5.99839e-30
5.99221e-30
5.98554e-30
5.97852e-30
5.97127e-30
5.96396e-30
5.95676e-30
6.00341e-30
6.00326e-30
6.00295e-30
6.00246e-30
6.00178e-30
6.00088e-30
5.99972e-30
5.99828e-30
5.99653e-30
5.99443e-30
5.99195e-30
5.98909e-30
5.98584e-30
5.9822e-30
5.97822e-30
5.97394e-30
5.96944e-30
5.9648e-30
5.96012e-30
5.95552e-30
5.98542e-30
5.98532e-30
5.98511e-30
5.98479e-30
5.98434e-30
5.98375e-30
5.98299e-30
5.98206e-30
5.98091e-30
5.97955e-30
5.97795e-30
5.97611e-30
5.97402e-30
5.97169e-30
5.96915e-30
5.96642e-30
5.96356e-30
5.96061e-30
5.95763e-30
5.95471e-30
5.97373e-30
5.97366e-30
5.97353e-30
5.97332e-30
5.97302e-30
5.97264e-30
5.97215e-30
5.97154e-30
5.9708e-30
5.96993e-30
5.9689e-30
5.96772e-30
5.96639e-30
5.96491e-30
5.9633e-30
5.96158e-30
5.95977e-30
5.95791e-30
5.95603e-30
5.95419e-30
5.96619e-30
5.96615e-30
5.96606e-30
5.96592e-30
5.96573e-30
5.96548e-30
5.96517e-30
5.96478e-30
5.96431e-30
5.96375e-30
5.9631e-30
5.96235e-30
5.96151e-30
5.96058e-30
5.95956e-30
5.95848e-30
5.95734e-30
5.95618e-30
5.95501e-30
5.95386e-30
5.96136e-30
5.96134e-30
5.96128e-30
5.96119e-30
5.96107e-30
5.96091e-30
5.96071e-30
5.96046e-30
5.96016e-30
5.95981e-30
5.9594e-30
5.95893e-30
5.9584e-30
5.95782e-30
5.95719e-30
5.95651e-30
5.95581e-30
5.95509e-30
5.95436e-30
5.95364e-30
5.9583e-30
5.95828e-30
5.95825e-30
5.95819e-30
5.95811e-30
5.95801e-30
5.95789e-30
5.95773e-30
5.95754e-30
5.95732e-30
5.95707e-30
5.95678e-30
5.95645e-30
5.95609e-30
5.9557e-30
5.95528e-30
5.95484e-30
5.9544e-30
5.95395e-30
5.95351e-30
5.95637e-30
5.95636e-30
5.95634e-30
5.95631e-30
5.95626e-30
5.95619e-30
5.95612e-30
5.95602e-30
5.9559e-30
5.95577e-30
5.95561e-30
5.95543e-30
5.95522e-30
5.955e-30
5.95476e-30
5.95451e-30
5.95424e-30
5.95397e-30
5.9537e-30
5.95343e-30
5.95517e-30
5.95517e-30
5.95515e-30
5.95513e-30
5.9551e-30
5.95506e-30
5.95501e-30
5.95495e-30
5.95488e-30
5.9548e-30
5.9547e-30
5.95459e-30
5.95447e-30
5.95433e-30
5.95419e-30
5.95403e-30
5.95387e-30
5.95371e-30
5.95354e-30
5.95338e-30
5.95443e-30
5.95443e-30
5.95442e-30
5.9544e-30
5.95439e-30
5.95436e-30
5.95433e-30
5.9543e-30
5.95425e-30
5.9542e-30
5.95414e-30
5.95408e-30
5.954e-30
5.95392e-30
5.95383e-30
5.95374e-30
5.95364e-30
5.95354e-30
5.95344e-30
5.95335e-30
5.95398e-30
5.95397e-30
5.95397e-30
5.95396e-30
5.95395e-30
5.95394e-30
5.95392e-30
5.9539e-30
5.95387e-30
5.95384e-30
5.9538e-30
5.95376e-30
5.95372e-30
5.95367e-30
5.95362e-30
5.95356e-30
5.9535e-30
5.95344e-30
5.95339e-30
5.95333e-30
5.9537e-30
5.9537e-30
5.9537e-30
5.95369e-30
5.95369e-30
5.95368e-30
5.95367e-30
5.95365e-30
5.95364e-30
5.95362e-30
5.9536e-30
5.95357e-30
5.95355e-30
5.95352e-30
5.95349e-30
5.95345e-30
5.95342e-30
5.95339e-30
5.95335e-30
5.95332e-30
5.95354e-30
5.95354e-30
5.95353e-30
5.95353e-30
5.95353e-30
5.95352e-30
5.95351e-30
5.95351e-30
5.9535e-30
5.95349e-30
5.95347e-30
5.95346e-30
5.95344e-30
5.95343e-30
5.95341e-30
5.95339e-30
5.95337e-30
5.95335e-30
5.95333e-30
5.95331e-30
5.95344e-30
5.95344e-30
5.95344e-30
5.95343e-30
5.95343e-30
5.95343e-30
5.95343e-30
5.95342e-30
5.95341e-30
5.95341e-30
5.9534e-30
5.95339e-30
5.95338e-30
5.95337e-30
5.95336e-30
5.95335e-30
5.95334e-30
5.95333e-30
5.95332e-30
5.95331e-30
5.95338e-30
5.95338e-30
5.95338e-30
5.95338e-30
5.95338e-30
5.95337e-30
5.95337e-30
5.95337e-30
5.95337e-30
5.95336e-30
5.95336e-30
5.95335e-30
5.95335e-30
5.95334e-30
5.95334e-30
5.95333e-30
5.95332e-30
5.95332e-30
5.95331e-30
5.9533e-30
5.95335e-30
5.95335e-30
5.95335e-30
5.95334e-30
5.95334e-30
5.95334e-30
5.95334e-30
5.95334e-30
5.95334e-30
5.95334e-30
5.95333e-30
5.95333e-30
5.95333e-30
5.95332e-30
5.95332e-30
5.95332e-30
5.95331e-30
5.95331e-30
5.95331e-30
5.9533e-30
5.95333e-30
5.95333e-30
5.95333e-30
5.95333e-30
5.95332e-30
5.95332e-30
5.95332e-30
5.95332e-30
5.95332e-30
5.95332e-30
5.95332e-30
5.95332e-30
5.95332e-30
5.95331e-30
5.95331e-30
5.95331e-30
5.95331e-30
5.95331e-30
5.9533e-30
5.9533e-30
5.95331e-30
5.95331e-30
5.95331e-30
5.95331e-30
5.95331e-30
5.95331e-30
5.95331e-30
5.95331e-30
5.95331e-30
5.95331e-30
5.95331e-30
5.95331e-30
5.95331e-30
5.95331e-30
5.95331e-30
5.95331e-30
5.9533e-30
5.9533e-30
5.9533e-30
5.9533e-30
5.95331e-30
5.95331e-30
5.95331e-30
5.95331e-30
5.95331e-30
5.95331e-30
5.95331e-30
5.95331e-30
5.95331e-30
5.95331e-30
5.95331e-30
5.95331e-30
5.95331e-30
5.9533e-30
5.9533e-30
5.9533e-30
5.9533e-30
5.9533e-30
5.9533e-30
5.9533e-30
5.9533e-30
5.9533e-30
5.9533e-30
5.9533e-30
5.9533e-30
5.9533e-30
5.9533e-30
5.9533e-30
5.9533e-30
5.9533e-30
5.9533e-30
5.9533e-30
5.9533e-30
5.9533e-30
5.9533e-30
5.9533e-30
5.9533e-30
5.9533e-30
5.9533e-30
5.9533e-30
5.9533e-30
5.9533e-30
5.9533e-30
5.9533e-30
5.9533e-30
5.9533e-30
5.9533e-30
5.9533e-30
5.9533e-30
5.9533e-30
5.9533e-30
5.9533e-30
5.9533e-30
5.9533e-30
5.9533e-30
5.9533e-30
5.9533e-30
5.9533e-30
5.9533e-30
5.9533e-30
5.9533e-30
5.9533e-30
5.9533e-30
5.9533e-30
5.9533e-30
5.9533e-30
5.9533e-30
5.9533e-30
5.9533e-30
5.9533e-30
5.9533e-30
5.9533e-30
5.9533e-30
5.9533e-30
5.9533e-30
5.9533e-30
5.9533e-30
5.9533e-30
5.9533e-30
5.9533e-30
)
;

boundaryField
{
    topWall
    {
        type            zeroGradient;
    }
    bottomWall
    {
        type            zeroGradient;
    }
    sideWallL
    {
        type            symmetry;
    }
    sideWallR
    {
        type            zeroGradient;
    }
    frontAndBack
    {
        type            empty;
    }
}


// ************************************************************************* //
