/*--------------------------------*- C++ -*----------------------------------*\
  =========                 |
  \\      /  F ield         | OpenFOAM: The Open Source CFD Toolbox
   \\    /   O peration     | Website:  https://openfoam.org
    \\  /    A nd           | Version:  7
     \\/     M anipulation  |
\*---------------------------------------------------------------------------*/
FoamFile
{
    version     2.0;
    format      ascii;
    class       volScalarField;
    location    "16";
    object      rhog;
}
// * * * * * * * * * * * * * * * * * * * * * * * * * * * * * * * * * * * * * //

dimensions      [1 -3 0 0 0 0 0];

internalField   nonuniform List<scalar> 
900
(
3.46435e-07
3.46313e-07
3.46055e-07
3.45628e-07
3.44981e-07
3.44033e-07
3.42669e-07
3.40715e-07
3.37922e-07
3.33924e-07
3.2818e-07
3.19887e-07
3.07829e-07
2.90154e-07
2.64009e-07
2.25084e-07
1.67698e-07
8.9926e-08
1.78655e-08
6.74234e-11
1.96141e-08
1.95916e-08
1.9544e-08
1.94656e-08
1.93474e-08
1.91755e-08
1.89301e-08
1.85834e-08
1.80968e-08
1.7418e-08
1.64779e-08
1.51904e-08
1.34578e-08
1.11959e-08
8.39724e-09
5.26164e-09
2.36316e-09
5.45259e-10
2.96619e-11
6.2069e-14
1.29205e-09
1.28946e-09
1.28398e-09
1.27501e-09
1.26155e-09
1.24215e-09
1.21478e-09
1.17671e-09
1.12443e-09
1.05362e-09
9.59519e-10
8.37846e-10
6.86884e-10
5.11275e-10
3.27003e-10
1.63681e-10
5.44865e-11
9.06044e-12
4.68187e-13
4.72598e-15
1.03146e-10
1.02854e-10
1.02238e-10
1.01233e-10
9.97347e-11
9.75952e-11
9.46139e-11
9.05358e-11
8.50579e-11
7.78572e-11
6.86622e-11
5.73899e-11
4.43654e-11
3.05761e-11
1.77658e-11
7.99295e-12
2.45174e-12
4.29487e-13
3.57108e-14
1.61507e-15
1.03146e-11
1.02781e-11
1.02014e-11
1.00768e-11
9.89242e-12
9.63144e-12
9.27216e-12
8.78845e-12
8.15186e-12
7.33684e-12
6.33056e-12
5.14833e-12
3.85241e-12
2.56395e-12
1.44767e-12
6.50541e-13
2.14767e-13
4.80612e-14
7.19626e-15
9.52992e-16
1.32297e-12
1.31763e-12
1.30644e-12
1.28834e-12
1.26172e-12
1.22435e-12
1.17346e-12
1.10587e-12
1.01842e-12
9.08753e-13
7.76656e-13
6.2585e-13
4.65655e-13
3.11226e-13
1.80481e-13
8.71975e-14
3.3743e-14
1.02874e-14
2.62811e-15
7.10831e-16
2.20675e-13
2.19732e-13
2.17759e-13
2.14581e-13
2.09932e-13
2.03454e-13
1.9471e-13
1.8322e-13
1.68537e-13
1.50382e-13
1.28844e-13
1.04619e-13
7.9193e-14
5.47878e-14
3.38837e-14
1.83455e-14
8.60001e-15
3.54967e-15
1.38892e-15
5.95964e-16
4.81066e-14
4.7903e-14
4.7478e-14
4.67957e-14
4.58019e-14
4.44249e-14
4.25786e-14
4.01708e-14
3.71186e-14
3.33743e-14
2.89614e-14
2.40149e-14
1.88078e-14
1.3738e-14
9.25037e-15
5.70185e-15
3.23225e-15
1.73008e-15
9.24969e-16
5.33171e-16
1.36778e-14
1.36241e-14
1.35124e-14
1.33334e-14
1.30737e-14
1.27153e-14
1.2237e-14
1.16162e-14
1.08325e-14
9.87385e-15
8.74404e-15
7.47154e-15
6.11503e-15
4.76132e-15
3.51115e-15
2.45397e-15
1.64141e-15
1.07437e-15
7.12027e-16
4.95826e-16
5.03013e-15
5.01309e-15
4.97763e-15
4.92096e-15
4.83893e-15
4.72607e-15
4.57589e-15
4.38146e-15
4.13636e-15
3.83632e-15
3.48127e-15
3.0776e-15
2.63979e-15
2.19035e-15
1.75692e-15
1.36679e-15
1.04023e-15
7.859e-16
6.00465e-16
4.72408e-16
2.35169e-15
2.34528e-15
2.33195e-15
2.31068e-15
2.27996e-15
2.23778e-15
2.18175e-15
2.1093e-15
2.01794e-15
1.90582e-15
1.77235e-15
1.61891e-15
1.44949e-15
1.27078e-15
1.09163e-15
9.21632e-16
7.69284e-16
6.4027e-16
5.36652e-16
4.57213e-16
1.35603e-15
1.35324e-15
1.34743e-15
1.33819e-15
1.32486e-15
1.30659e-15
1.28236e-15
1.25103e-15
1.2115e-15
1.16284e-15
1.10455e-15
1.03686e-15
9.60896e-16
8.78892e-16
7.94026e-16
7.10074e-16
6.30822e-16
5.59424e-16
4.97932e-16
4.47131e-16
9.25134e-16
9.2376e-16
9.20908e-16
9.16371e-16
9.09838e-16
9.00898e-16
8.89056e-16
8.73757e-16
8.54438e-16
8.30598e-16
8.01899e-16
7.68282e-16
7.30077e-16
6.88076e-16
6.43537e-16
5.98083e-16
5.53502e-16
5.11505e-16
4.73481e-16
4.40345e-16
7.14558e-16
7.13813e-16
7.12268e-16
7.09813e-16
7.06285e-16
7.01465e-16
6.95091e-16
6.86864e-16
6.76477e-16
6.6364e-16
6.48135e-16
6.29863e-16
6.08904e-16
5.85558e-16
5.60362e-16
5.34066e-16
5.07564e-16
4.81794e-16
4.57621e-16
4.35738e-16
6.01545e-16
6.0111e-16
6.00208e-16
5.98776e-16
5.96723e-16
5.93924e-16
5.9023e-16
5.8547e-16
5.79466e-16
5.72045e-16
5.63066e-16
5.52448e-16
5.40195e-16
5.26425e-16
5.11385e-16
4.95445e-16
4.79074e-16
4.62801e-16
4.4715e-16
4.32595e-16
5.36497e-16
5.36227e-16
5.3567e-16
5.34788e-16
5.33525e-16
5.31808e-16
5.29547e-16
5.26641e-16
5.22981e-16
5.18463e-16
5.12997e-16
5.06522e-16
4.99027e-16
4.90559e-16
4.81239e-16
4.7126e-16
4.60882e-16
4.50409e-16
4.40161e-16
4.30446e-16
4.97101e-16
4.96928e-16
4.9657e-16
4.96004e-16
4.95196e-16
4.94101e-16
4.92663e-16
4.9082e-16
4.88504e-16
4.85652e-16
4.82205e-16
4.78123e-16
4.73393e-16
4.68034e-16
4.62111e-16
4.5573e-16
4.49039e-16
4.42219e-16
4.35466e-16
4.28979e-16
4.7237e-16
4.72255e-16
4.72019e-16
4.71646e-16
4.71115e-16
4.70398e-16
4.69459e-16
4.68259e-16
4.66757e-16
4.64912e-16
4.62687e-16
4.60056e-16
4.57009e-16
4.53555e-16
4.49729e-16
4.45593e-16
4.41236e-16
4.36765e-16
4.32304e-16
4.27978e-16
4.56459e-16
4.56382e-16
4.56223e-16
4.55974e-16
4.55619e-16
4.55141e-16
4.54518e-16
4.53724e-16
4.52734e-16
4.51522e-16
4.50065e-16
4.48346e-16
4.46359e-16
4.44107e-16
4.41612e-16
4.38912e-16
4.36059e-16
4.33121e-16
4.30174e-16
4.27299e-16
4.4606e-16
4.46008e-16
4.459e-16
4.45731e-16
4.45492e-16
4.45171e-16
4.44753e-16
4.44224e-16
4.43566e-16
4.42763e-16
4.41801e-16
4.4067e-16
4.39364e-16
4.37888e-16
4.36254e-16
4.34486e-16
4.32615e-16
4.30684e-16
4.28742e-16
4.26839e-16
4.392e-16
4.39164e-16
4.39091e-16
4.38976e-16
4.38814e-16
4.38598e-16
4.38317e-16
4.37963e-16
4.37524e-16
4.3699e-16
4.36353e-16
4.35607e-16
4.34748e-16
4.33779e-16
4.32707e-16
4.31549e-16
4.30324e-16
4.29058e-16
4.27783e-16
4.2653e-16
4.34655e-16
4.3463e-16
4.34581e-16
4.34503e-16
4.34393e-16
4.34247e-16
4.34059e-16
4.33821e-16
4.33529e-16
4.33174e-16
4.32753e-16
4.32261e-16
4.31696e-16
4.3106e-16
4.3036e-16
4.29603e-16
4.28803e-16
4.27976e-16
4.27143e-16
4.26323e-16
4.31641e-16
4.31625e-16
4.31591e-16
4.31538e-16
4.31465e-16
4.31366e-16
4.3124e-16
4.31082e-16
4.30887e-16
4.30653e-16
4.30375e-16
4.30051e-16
4.29681e-16
4.29266e-16
4.28809e-16
4.28317e-16
4.27797e-16
4.2726e-16
4.26719e-16
4.26186e-16
4.29647e-16
4.29636e-16
4.29614e-16
4.29578e-16
4.29529e-16
4.29463e-16
4.29379e-16
4.29274e-16
4.29146e-16
4.28991e-16
4.28809e-16
4.28597e-16
4.28356e-16
4.28086e-16
4.2779e-16
4.27471e-16
4.27135e-16
4.26789e-16
4.26439e-16
4.26095e-16
4.28333e-16
4.28326e-16
4.28311e-16
4.28287e-16
4.28255e-16
4.28211e-16
4.28155e-16
4.28086e-16
4.28002e-16
4.27901e-16
4.27782e-16
4.27644e-16
4.27488e-16
4.27314e-16
4.27123e-16
4.26918e-16
4.26703e-16
4.2648e-16
4.26256e-16
4.26036e-16
4.27473e-16
4.27468e-16
4.27458e-16
4.27442e-16
4.2742e-16
4.27392e-16
4.27355e-16
4.2731e-16
4.27255e-16
4.2719e-16
4.27113e-16
4.27024e-16
4.26924e-16
4.26812e-16
4.2669e-16
4.26559e-16
4.26421e-16
4.2628e-16
4.26138e-16
4.25997e-16
4.26912e-16
4.26909e-16
4.26903e-16
4.26892e-16
4.26878e-16
4.2686e-16
4.26836e-16
4.26807e-16
4.26771e-16
4.26729e-16
4.26679e-16
4.26623e-16
4.26559e-16
4.26488e-16
4.2641e-16
4.26327e-16
4.2624e-16
4.26151e-16
4.26061e-16
4.25972e-16
4.2655e-16
4.26548e-16
4.26544e-16
4.26537e-16
4.26528e-16
4.26516e-16
4.26501e-16
4.26482e-16
4.26459e-16
4.26432e-16
4.26401e-16
4.26365e-16
4.26325e-16
4.2628e-16
4.26231e-16
4.26179e-16
4.26124e-16
4.26068e-16
4.26012e-16
4.25956e-16
4.26318e-16
4.26317e-16
4.26314e-16
4.2631e-16
4.26304e-16
4.26297e-16
4.26287e-16
4.26275e-16
4.2626e-16
4.26243e-16
4.26224e-16
4.26201e-16
4.26176e-16
4.26147e-16
4.26117e-16
4.26084e-16
4.26051e-16
4.26016e-16
4.25981e-16
4.25946e-16
4.26171e-16
4.2617e-16
4.26168e-16
4.26166e-16
4.26162e-16
4.26157e-16
4.26151e-16
4.26143e-16
4.26134e-16
4.26124e-16
4.26111e-16
4.26097e-16
4.26081e-16
4.26064e-16
4.26045e-16
4.26025e-16
4.26004e-16
4.25983e-16
4.25961e-16
4.2594e-16
4.26078e-16
4.26078e-16
4.26077e-16
4.26075e-16
4.26073e-16
4.2607e-16
4.26066e-16
4.26061e-16
4.26055e-16
4.26049e-16
4.26041e-16
4.26032e-16
4.26023e-16
4.26012e-16
4.26e-16
4.25988e-16
4.25975e-16
4.25962e-16
4.25949e-16
4.25936e-16
4.2602e-16
4.2602e-16
4.26019e-16
4.26018e-16
4.26017e-16
4.26015e-16
4.26013e-16
4.2601e-16
4.26006e-16
4.26002e-16
4.25997e-16
4.25992e-16
4.25986e-16
4.2598e-16
4.25973e-16
4.25965e-16
4.25957e-16
4.25949e-16
4.25941e-16
4.25933e-16
4.25984e-16
4.25984e-16
4.25984e-16
4.25983e-16
4.25982e-16
4.25981e-16
4.2598e-16
4.25978e-16
4.25976e-16
4.25973e-16
4.2597e-16
4.25967e-16
4.25964e-16
4.2596e-16
4.25955e-16
4.25951e-16
4.25946e-16
4.25941e-16
4.25937e-16
4.25932e-16
4.25963e-16
4.25962e-16
4.25962e-16
4.25962e-16
4.25961e-16
4.2596e-16
4.2596e-16
4.25959e-16
4.25957e-16
4.25956e-16
4.25954e-16
4.25952e-16
4.2595e-16
4.25948e-16
4.25945e-16
4.25942e-16
4.2594e-16
4.25937e-16
4.25934e-16
4.25931e-16
4.25949e-16
4.25949e-16
4.25949e-16
4.25949e-16
4.25948e-16
4.25948e-16
4.25947e-16
4.25947e-16
4.25946e-16
4.25945e-16
4.25944e-16
4.25943e-16
4.25942e-16
4.2594e-16
4.25939e-16
4.25937e-16
4.25936e-16
4.25934e-16
4.25932e-16
4.25931e-16
4.25941e-16
4.25941e-16
4.25941e-16
4.25941e-16
4.25941e-16
4.2594e-16
4.2594e-16
4.2594e-16
4.25939e-16
4.25939e-16
4.25938e-16
4.25937e-16
4.25937e-16
4.25936e-16
4.25935e-16
4.25934e-16
4.25933e-16
4.25932e-16
4.25931e-16
4.2593e-16
4.25936e-16
4.25936e-16
4.25936e-16
4.25936e-16
4.25936e-16
4.25936e-16
4.25936e-16
4.25936e-16
4.25935e-16
4.25935e-16
4.25935e-16
4.25934e-16
4.25934e-16
4.25933e-16
4.25933e-16
4.25932e-16
4.25932e-16
4.25931e-16
4.25931e-16
4.2593e-16
4.25934e-16
4.25934e-16
4.25934e-16
4.25933e-16
4.25933e-16
4.25933e-16
4.25933e-16
4.25933e-16
4.25933e-16
4.25933e-16
4.25933e-16
4.25932e-16
4.25932e-16
4.25932e-16
4.25931e-16
4.25931e-16
4.25931e-16
4.25931e-16
4.2593e-16
4.2593e-16
4.25932e-16
4.25932e-16
4.25932e-16
4.25932e-16
4.25932e-16
4.25932e-16
4.25932e-16
4.25932e-16
4.25932e-16
4.25931e-16
4.25931e-16
4.25931e-16
4.25931e-16
4.25931e-16
4.25931e-16
4.25931e-16
4.2593e-16
4.2593e-16
4.2593e-16
4.2593e-16
4.25931e-16
4.25931e-16
4.25931e-16
4.25931e-16
4.25931e-16
4.25931e-16
4.25931e-16
4.25931e-16
4.25931e-16
4.25931e-16
4.25931e-16
4.25931e-16
4.2593e-16
4.2593e-16
4.2593e-16
4.2593e-16
4.2593e-16
4.2593e-16
4.2593e-16
4.2593e-16
4.2593e-16
4.2593e-16
4.2593e-16
4.2593e-16
4.2593e-16
4.2593e-16
4.2593e-16
4.2593e-16
4.2593e-16
4.2593e-16
4.2593e-16
4.2593e-16
4.2593e-16
4.2593e-16
4.2593e-16
4.2593e-16
4.2593e-16
4.2593e-16
4.2593e-16
4.2593e-16
4.2593e-16
4.2593e-16
4.2593e-16
4.2593e-16
4.2593e-16
4.2593e-16
4.2593e-16
4.2593e-16
4.2593e-16
4.2593e-16
4.2593e-16
4.2593e-16
4.2593e-16
4.2593e-16
4.2593e-16
4.2593e-16
4.2593e-16
4.2593e-16
4.2593e-16
4.2593e-16
4.2593e-16
4.2593e-16
4.2593e-16
4.2593e-16
4.2593e-16
4.2593e-16
4.2593e-16
4.2593e-16
4.2593e-16
4.2593e-16
4.2593e-16
4.2593e-16
4.2593e-16
4.2593e-16
4.2593e-16
4.2593e-16
4.2593e-16
4.2593e-16
4.2593e-16
4.2593e-16
4.2593e-16
4.2593e-16
4.2593e-16
4.2593e-16
4.2593e-16
4.2593e-16
4.2593e-16
4.2593e-16
4.2593e-16
4.2593e-16
4.2593e-16
4.2593e-16
4.2593e-16
4.2593e-16
4.2593e-16
4.2593e-16
4.2593e-16
4.2593e-16
4.2593e-16
4.2593e-16
4.2593e-16
4.2593e-16
4.2593e-16
4.2593e-16
4.2593e-16
4.2593e-16
4.2593e-16
4.2593e-16
4.2593e-16
4.2593e-16
4.2593e-16
4.2593e-16
4.2593e-16
4.2593e-16
4.2593e-16
4.2593e-16
4.2593e-16
4.2593e-16
4.2593e-16
4.2593e-16
)
;

boundaryField
{
    topWall
    {
        type            calculated;
        value           uniform 0;
    }
    bottomWall
    {
        type            zeroGradient;
    }
    sideWallL
    {
        type            symmetry;
    }
    sideWallR
    {
        type            calculated;
        value           uniform 0;
    }
    frontAndBack
    {
        type            empty;
    }
}


// ************************************************************************* //
