/*--------------------------------*- C++ -*----------------------------------*\
  =========                 |
  \\      /  F ield         | OpenFOAM: The Open Source CFD Toolbox
   \\    /   O peration     | Website:  https://openfoam.org
    \\  /    A nd           | Version:  7
     \\/     M anipulation  |
\*---------------------------------------------------------------------------*/
FoamFile
{
    version     2.0;
    format      ascii;
    class       volScalarField;
    location    "16";
    object      rhois;
}
// * * * * * * * * * * * * * * * * * * * * * * * * * * * * * * * * * * * * * //

dimensions      [1 -3 0 0 0 0 0];

internalField   nonuniform List<scalar> 
900
(
2.12821e-05
2.12768e-05
2.12658e-05
2.12475e-05
2.12196e-05
2.11788e-05
2.11197e-05
2.10347e-05
2.09127e-05
2.07369e-05
2.04826e-05
2.01121e-05
1.95672e-05
1.87551e-05
1.7525e-05
1.56238e-05
1.26358e-05
8.05695e-06
2.50777e-06
4.53182e-08
2.60345e-06
2.60137e-06
2.59697e-06
2.58971e-06
2.57871e-06
2.56264e-06
2.53958e-06
2.50674e-06
2.46021e-06
2.3945e-06
2.302e-06
2.17245e-06
1.99258e-06
1.74686e-06
1.42146e-06
1.0163e-06
5.71856e-07
1.99443e-07
2.47825e-08
3.17571e-10
3.57747e-07
3.57249e-07
3.56196e-07
3.54464e-07
3.51853e-07
3.48065e-07
3.42677e-07
3.351e-07
3.24543e-07
3.09974e-07
2.90109e-07
2.63491e-07
2.28768e-07
1.8536e-07
1.34737e-07
8.21874e-08
3.74665e-08
1.04328e-08
1.28223e-09
5.35981e-11
5.69141e-08
5.68027e-08
5.65674e-08
5.61818e-08
5.56038e-08
5.47716e-08
5.35995e-08
5.19736e-08
4.97483e-08
4.67491e-08
4.27867e-08
3.76965e-08
3.14189e-08
2.41334e-08
1.64198e-08
9.3188e-09
4.03668e-09
1.18357e-09
2.10052e-10
2.57486e-11
1.07457e-08
1.07196e-08
1.06646e-08
1.05749e-08
1.04412e-08
1.02501e-08
9.98372e-09
9.61903e-09
9.12829e-09
8.48105e-09
7.64918e-09
6.61705e-09
5.39792e-09
4.05457e-09
2.71323e-09
1.5479e-09
7.13646e-10
2.53182e-10
6.96106e-11
1.79401e-11
2.45224e-09
2.44552e-09
2.43138e-09
2.40841e-09
2.37434e-09
2.32602e-09
2.25929e-09
2.16899e-09
2.04925e-09
1.89409e-09
1.69889e-09
1.46266e-09
1.19129e-09
9.00675e-10
6.1743e-10
3.73684e-10
1.94978e-10
8.72871e-11
3.51757e-11
1.46505e-11
6.84438e-10
6.82481e-10
6.78373e-10
6.71721e-10
6.61907e-10
6.48078e-10
6.29133e-10
6.03747e-10
5.70467e-10
5.2791e-10
4.75139e-10
4.12225e-10
3.40937e-10
2.65289e-10
1.91462e-10
1.26564e-10
7.62692e-11
4.249e-11
2.29198e-11
1.29553e-11
2.34969e-10
2.34318e-10
2.32955e-10
2.30754e-10
2.27521e-10
2.22991e-10
2.16825e-10
2.08626e-10
1.97966e-10
1.84453e-10
1.67837e-10
1.48159e-10
1.25925e-10
1.02228e-10
7.87103e-11
5.72699e-11
3.95329e-11
2.63182e-11
1.74381e-11
1.19787e-11
9.91146e-11
9.88674e-11
9.83506e-11
9.75184e-11
9.63006e-11
9.46016e-11
9.23013e-11
8.92596e-11
8.53273e-11
8.03682e-11
7.42925e-11
6.71035e-11
5.89479e-11
5.01515e-11
4.12125e-11
3.27284e-11
2.52603e-11
1.91841e-11
1.46042e-11
1.13771e-11
5.08425e-11
5.07362e-11
5.05141e-11
5.01573e-11
4.96369e-11
4.89135e-11
4.79381e-11
4.66536e-11
4.49992e-11
4.29185e-11
4.03712e-11
3.73498e-11
3.38968e-11
3.01179e-11
2.61829e-11
2.23063e-11
1.87093e-11
1.55713e-11
1.2994e-11
1.09908e-11
3.10275e-11
3.09763e-11
3.08696e-11
3.06985e-11
3.04495e-11
3.01047e-11
2.96412e-11
2.90328e-11
2.82513e-11
2.72697e-11
2.60675e-11
2.46363e-11
2.29877e-11
2.11581e-11
1.92113e-11
1.72331e-11
1.53192e-11
1.35592e-11
1.20197e-11
1.07358e-11
2.18292e-11
2.18021e-11
2.17456e-11
2.16553e-11
2.15243e-11
2.13432e-11
2.11007e-11
2.07832e-11
2.03763e-11
1.98658e-11
1.92401e-11
1.84929e-11
1.76261e-11
1.66531e-11
1.55997e-11
1.45033e-11
1.34089e-11
1.23625e-11
1.14047e-11
1.05646e-11
1.71079e-11
1.70924e-11
1.70601e-11
1.70086e-11
1.69339e-11
1.68312e-11
1.66939e-11
1.65147e-11
1.62856e-11
1.59986e-11
1.56468e-11
1.52257e-11
1.47349e-11
1.41792e-11
1.357e-11
1.29246e-11
1.22656e-11
1.16179e-11
1.10054e-11
1.04483e-11
1.44852e-11
1.44758e-11
1.44561e-11
1.44248e-11
1.43797e-11
1.43176e-11
1.4235e-11
1.41276e-11
1.39906e-11
1.38193e-11
1.36095e-11
1.33581e-11
1.30644e-11
1.27299e-11
1.23601e-11
1.19636e-11
1.15523e-11
1.114e-11
1.07411e-11
1.03689e-11
1.29378e-11
1.29318e-11
1.29193e-11
1.28994e-11
1.28707e-11
1.28315e-11
1.27795e-11
1.27121e-11
1.26264e-11
1.25195e-11
1.23889e-11
1.22325e-11
1.20495e-11
1.18405e-11
1.16082e-11
1.13573e-11
1.10941e-11
1.08269e-11
1.05642e-11
1.03145e-11
1.19833e-11
1.19793e-11
1.1971e-11
1.1958e-11
1.19392e-11
1.19136e-11
1.18797e-11
1.1836e-11
1.17807e-11
1.17119e-11
1.1628e-11
1.15278e-11
1.14106e-11
1.12766e-11
1.11273e-11
1.09653e-11
1.07942e-11
1.0619e-11
1.04448e-11
1.02772e-11
1.13753e-11
1.13726e-11
1.13671e-11
1.13583e-11
1.13457e-11
1.13286e-11
1.13061e-11
1.12771e-11
1.12406e-11
1.11954e-11
1.11404e-11
1.10749e-11
1.09985e-11
1.09111e-11
1.08137e-11
1.07078e-11
1.05955e-11
1.04798e-11
1.0364e-11
1.02516e-11
1.09795e-11
1.09777e-11
1.09739e-11
1.09679e-11
1.09593e-11
1.09477e-11
1.09326e-11
1.09131e-11
1.08887e-11
1.08586e-11
1.08221e-11
1.07788e-11
1.07283e-11
1.06708e-11
1.06067e-11
1.05369e-11
1.04629e-11
1.03863e-11
1.03094e-11
1.02342e-11
1.07181e-11
1.07168e-11
1.07142e-11
1.07101e-11
1.07042e-11
1.06963e-11
1.0686e-11
1.06729e-11
1.06564e-11
1.06362e-11
1.06118e-11
1.0583e-11
1.05495e-11
1.05115e-11
1.04691e-11
1.0423e-11
1.03741e-11
1.03235e-11
1.02724e-11
1.02223e-11
1.0544e-11
1.05431e-11
1.05413e-11
1.05385e-11
1.05345e-11
1.05291e-11
1.0522e-11
1.05131e-11
1.0502e-11
1.04884e-11
1.04721e-11
1.04529e-11
1.04306e-11
1.04054e-11
1.03774e-11
1.0347e-11
1.03147e-11
1.02812e-11
1.02475e-11
1.02143e-11
1.04276e-11
1.0427e-11
1.04257e-11
1.04238e-11
1.0421e-11
1.04173e-11
1.04126e-11
1.04065e-11
1.0399e-11
1.03899e-11
1.0379e-11
1.03662e-11
1.03514e-11
1.03347e-11
1.03162e-11
1.02962e-11
1.0275e-11
1.0253e-11
1.02307e-11
1.02088e-11
1.03497e-11
1.03493e-11
1.03484e-11
1.03471e-11
1.03452e-11
1.03427e-11
1.03395e-11
1.03354e-11
1.03304e-11
1.03242e-11
1.0317e-11
1.03085e-11
1.02987e-11
1.02877e-11
1.02756e-11
1.02624e-11
1.02485e-11
1.02341e-11
1.02196e-11
1.02052e-11
1.02977e-11
1.02974e-11
1.02969e-11
1.0296e-11
1.02947e-11
1.0293e-11
1.02908e-11
1.02881e-11
1.02847e-11
1.02806e-11
1.02758e-11
1.02702e-11
1.02638e-11
1.02566e-11
1.02486e-11
1.024e-11
1.0231e-11
1.02216e-11
1.02121e-11
1.02028e-11
1.02632e-11
1.0263e-11
1.02626e-11
1.0262e-11
1.02611e-11
1.026e-11
1.02585e-11
1.02567e-11
1.02545e-11
1.02518e-11
1.02486e-11
1.02449e-11
1.02407e-11
1.0236e-11
1.02308e-11
1.02253e-11
1.02194e-11
1.02134e-11
1.02073e-11
1.02012e-11
1.02403e-11
1.02402e-11
1.02399e-11
1.02395e-11
1.02389e-11
1.02382e-11
1.02372e-11
1.0236e-11
1.02345e-11
1.02328e-11
1.02307e-11
1.02283e-11
1.02256e-11
1.02225e-11
1.02192e-11
1.02156e-11
1.02119e-11
1.0208e-11
1.02041e-11
1.02002e-11
1.02253e-11
1.02252e-11
1.0225e-11
1.02248e-11
1.02244e-11
1.02239e-11
1.02233e-11
1.02225e-11
1.02215e-11
1.02204e-11
1.0219e-11
1.02175e-11
1.02157e-11
1.02138e-11
1.02116e-11
1.02093e-11
1.02069e-11
1.02045e-11
1.0202e-11
1.01995e-11
1.02155e-11
1.02155e-11
1.02154e-11
1.02152e-11
1.02149e-11
1.02146e-11
1.02142e-11
1.02137e-11
1.02131e-11
1.02123e-11
1.02115e-11
1.02105e-11
1.02093e-11
1.02081e-11
1.02067e-11
1.02053e-11
1.02038e-11
1.02022e-11
1.02006e-11
1.01991e-11
1.02092e-11
1.02092e-11
1.02091e-11
1.0209e-11
1.02088e-11
1.02086e-11
1.02083e-11
1.0208e-11
1.02076e-11
1.02071e-11
1.02066e-11
1.0206e-11
1.02053e-11
1.02045e-11
1.02036e-11
1.02027e-11
1.02017e-11
1.02008e-11
1.01998e-11
1.01988e-11
1.02051e-11
1.02051e-11
1.02051e-11
1.0205e-11
1.02049e-11
1.02048e-11
1.02046e-11
1.02044e-11
1.02041e-11
1.02038e-11
1.02035e-11
1.02031e-11
1.02026e-11
1.02022e-11
1.02016e-11
1.0201e-11
1.02005e-11
1.01998e-11
1.01992e-11
1.01986e-11
1.02026e-11
1.02025e-11
1.02025e-11
1.02025e-11
1.02024e-11
1.02023e-11
1.02022e-11
1.02021e-11
1.02019e-11
1.02017e-11
1.02015e-11
1.02013e-11
1.0201e-11
1.02007e-11
1.02004e-11
1.02e-11
1.01996e-11
1.01993e-11
1.01989e-11
1.01985e-11
1.02009e-11
1.02009e-11
1.02009e-11
1.02009e-11
1.02008e-11
1.02008e-11
1.02007e-11
1.02006e-11
1.02005e-11
1.02004e-11
1.02003e-11
1.02001e-11
1.02e-11
1.01998e-11
1.01996e-11
1.01994e-11
1.01991e-11
1.01989e-11
1.01987e-11
1.01984e-11
1.01999e-11
1.01999e-11
1.01999e-11
1.01999e-11
1.01999e-11
1.01998e-11
1.01998e-11
1.01997e-11
1.01997e-11
1.01996e-11
1.01995e-11
1.01994e-11
1.01993e-11
1.01992e-11
1.01991e-11
1.0199e-11
1.01988e-11
1.01987e-11
1.01985e-11
1.01984e-11
1.01993e-11
1.01993e-11
1.01993e-11
1.01993e-11
1.01993e-11
1.01992e-11
1.01992e-11
1.01992e-11
1.01991e-11
1.01991e-11
1.01991e-11
1.0199e-11
1.01989e-11
1.01989e-11
1.01988e-11
1.01987e-11
1.01986e-11
1.01985e-11
1.01985e-11
1.01984e-11
1.01989e-11
1.01989e-11
1.01989e-11
1.01989e-11
1.01989e-11
1.01989e-11
1.01989e-11
1.01988e-11
1.01988e-11
1.01988e-11
1.01988e-11
1.01987e-11
1.01987e-11
1.01987e-11
1.01986e-11
1.01986e-11
1.01985e-11
1.01985e-11
1.01984e-11
1.01984e-11
1.01987e-11
1.01987e-11
1.01987e-11
1.01987e-11
1.01987e-11
1.01987e-11
1.01986e-11
1.01986e-11
1.01986e-11
1.01986e-11
1.01986e-11
1.01986e-11
1.01985e-11
1.01985e-11
1.01985e-11
1.01985e-11
1.01984e-11
1.01984e-11
1.01984e-11
1.01984e-11
1.01985e-11
1.01985e-11
1.01985e-11
1.01985e-11
1.01985e-11
1.01985e-11
1.01985e-11
1.01985e-11
1.01985e-11
1.01985e-11
1.01985e-11
1.01985e-11
1.01985e-11
1.01984e-11
1.01984e-11
1.01984e-11
1.01984e-11
1.01984e-11
1.01984e-11
1.01983e-11
1.01985e-11
1.01985e-11
1.01985e-11
1.01985e-11
1.01985e-11
1.01984e-11
1.01984e-11
1.01984e-11
1.01984e-11
1.01984e-11
1.01984e-11
1.01984e-11
1.01984e-11
1.01984e-11
1.01984e-11
1.01984e-11
1.01984e-11
1.01984e-11
1.01984e-11
1.01983e-11
1.01984e-11
1.01984e-11
1.01984e-11
1.01984e-11
1.01984e-11
1.01984e-11
1.01984e-11
1.01984e-11
1.01984e-11
1.01984e-11
1.01984e-11
1.01984e-11
1.01984e-11
1.01984e-11
1.01984e-11
1.01984e-11
1.01984e-11
1.01984e-11
1.01983e-11
1.01983e-11
1.01984e-11
1.01984e-11
1.01984e-11
1.01984e-11
1.01984e-11
1.01984e-11
1.01984e-11
1.01984e-11
1.01984e-11
1.01984e-11
1.01984e-11
1.01984e-11
1.01984e-11
1.01984e-11
1.01984e-11
1.01984e-11
1.01983e-11
1.01983e-11
1.01983e-11
1.01983e-11
1.01984e-11
1.01984e-11
1.01984e-11
1.01984e-11
1.01984e-11
1.01984e-11
1.01984e-11
1.01984e-11
1.01984e-11
1.01984e-11
1.01984e-11
1.01984e-11
1.01984e-11
1.01984e-11
1.01983e-11
1.01983e-11
1.01983e-11
1.01983e-11
1.01983e-11
1.01983e-11
1.01984e-11
1.01984e-11
1.01984e-11
1.01984e-11
1.01984e-11
1.01984e-11
1.01983e-11
1.01983e-11
1.01983e-11
1.01983e-11
1.01983e-11
1.01983e-11
1.01983e-11
1.01983e-11
1.01983e-11
1.01983e-11
1.01983e-11
1.01983e-11
1.01983e-11
1.01983e-11
1.01983e-11
1.01983e-11
1.01983e-11
1.01983e-11
1.01983e-11
1.01983e-11
1.01983e-11
1.01983e-11
1.01983e-11
1.01983e-11
1.01983e-11
1.01983e-11
1.01983e-11
1.01983e-11
1.01983e-11
1.01983e-11
1.01983e-11
1.01983e-11
1.01983e-11
1.01983e-11
1.01983e-11
1.01983e-11
1.01983e-11
1.01983e-11
1.01983e-11
1.01983e-11
1.01983e-11
1.01983e-11
1.01983e-11
1.01983e-11
1.01983e-11
1.01983e-11
1.01983e-11
1.01983e-11
1.01983e-11
1.01983e-11
1.01983e-11
1.01983e-11
1.01983e-11
1.01983e-11
1.01983e-11
1.01983e-11
1.01983e-11
1.01983e-11
1.01983e-11
1.01983e-11
1.01983e-11
1.01983e-11
1.01983e-11
1.01983e-11
1.01983e-11
1.01983e-11
1.01983e-11
1.01983e-11
1.01983e-11
1.01983e-11
1.01983e-11
1.01983e-11
1.01983e-11
1.01983e-11
1.01983e-11
1.01983e-11
1.01983e-11
1.01983e-11
1.01983e-11
1.01983e-11
1.01983e-11
1.01983e-11
1.01983e-11
1.01983e-11
1.01983e-11
1.01983e-11
1.01983e-11
1.01983e-11
1.01983e-11
1.01983e-11
1.01983e-11
1.01983e-11
1.01983e-11
1.01983e-11
)
;

boundaryField
{
    topWall
    {
        type            zeroGradient;
    }
    bottomWall
    {
        type            zeroGradient;
    }
    sideWallL
    {
        type            symmetry;
    }
    sideWallR
    {
        type            zeroGradient;
    }
    frontAndBack
    {
        type            empty;
    }
}


// ************************************************************************* //
