/*--------------------------------*- C++ -*----------------------------------*\
  =========                 |
  \\      /  F ield         | OpenFOAM: The Open Source CFD Toolbox
   \\    /   O peration     | Website:  https://openfoam.org
    \\  /    A nd           | Version:  7
     \\/     M anipulation  |
\*---------------------------------------------------------------------------*/
FoamFile
{
    version     2.0;
    format      ascii;
    class       volScalarField;
    location    "16";
    object      rhot1;
}
// * * * * * * * * * * * * * * * * * * * * * * * * * * * * * * * * * * * * * //

dimensions      [1 -3 0 0 0 0 0];

internalField   nonuniform List<scalar> 
900
(
3.40421e-06
3.40305e-06
3.4006e-06
3.39655e-06
3.39041e-06
3.38142e-06
3.36846e-06
3.34991e-06
3.32337e-06
3.28535e-06
3.2307e-06
3.15171e-06
3.03673e-06
2.86786e-06
2.61742e-06
2.24297e-06
1.68691e-06
9.22721e-07
1.92997e-07
8.71608e-10
2.10521e-07
2.10288e-07
2.09795e-07
2.08983e-07
2.07757e-07
2.05975e-07
2.03429e-07
1.99829e-07
1.94771e-07
1.87705e-07
1.77903e-07
1.64443e-07
1.46268e-07
1.22418e-07
9.26787e-08
5.89568e-08
2.71724e-08
6.57363e-09
3.93118e-10
1.01283e-12
1.50863e-08
1.50571e-08
1.49954e-08
1.48943e-08
1.47426e-08
1.45237e-08
1.42146e-08
1.37841e-08
1.3192e-08
1.23884e-08
1.13174e-08
9.92701e-09
8.1921e-09
6.15732e-09
3.99633e-09
2.04622e-09
7.06147e-10
1.24572e-10
7.10934e-12
8.4581e-14
1.30333e-09
1.29976e-09
1.29225e-09
1.28e-09
1.26172e-09
1.23559e-09
1.19914e-09
1.1492e-09
1.08199e-09
9.93381e-10
8.798e-10
7.3982e-10
5.76877e-10
4.02549e-10
2.38166e-10
1.10043e-10
3.51163e-11
6.52561e-12
5.91964e-13
3.00916e-14
1.40166e-10
1.39688e-10
1.38683e-10
1.3705e-10
1.34631e-10
1.31204e-10
1.26479e-10
1.20107e-10
1.11699e-10
1.00899e-10
8.75036e-11
7.16681e-11
5.41615e-11
3.65502e-11
2.10428e-11
9.71812e-12
3.33345e-12
7.86479e-13
1.26349e-13
1.8111e-14
1.92019e-11
1.91272e-11
1.89707e-11
1.87175e-11
1.83447e-11
1.78208e-11
1.71063e-11
1.61554e-11
1.49217e-11
1.33687e-11
1.14889e-11
9.3285e-12
7.01303e-12
4.75389e-12
2.81013e-12
1.3932e-12
5.57953e-13
1.77834e-13
4.79356e-14
1.36555e-14
3.39658e-12
3.38262e-12
3.3534e-12
3.30631e-12
3.23735e-12
3.14114e-12
3.01107e-12
2.83978e-12
2.62027e-12
2.34781e-12
2.02294e-12
1.65511e-12
1.26565e-12
8.8749e-13
5.5869e-13
3.09526e-13
1.49389e-13
6.38743e-14
2.59735e-14
1.15215e-14
7.79711e-13
7.76543e-13
7.69928e-13
7.593e-13
7.43807e-13
7.22312e-13
6.93445e-13
6.55715e-13
6.07751e-13
5.48691e-13
4.78748e-13
3.99851e-13
3.16121e-13
2.33746e-13
1.59861e-13
1.00468e-13
5.82957e-14
3.20309e-14
1.75768e-14
1.03478e-14
2.31886e-13
2.31016e-13
2.29201e-13
2.26294e-13
2.2207e-13
2.16235e-13
2.08435e-13
1.98289e-13
1.85447e-13
1.69682e-13
1.51021e-13
1.29884e-13
1.07189e-13
8.43365e-14
6.29966e-14
4.47071e-14
3.04256e-14
2.02788e-14
1.36685e-14
9.64687e-15
8.86174e-14
8.8331e-14
8.77345e-14
8.6781e-14
8.53994e-14
8.34964e-14
8.09606e-14
7.7671e-14
7.35141e-14
6.84097e-14
6.23458e-14
5.54177e-14
4.7858e-14
4.00395e-14
3.2432e-14
2.55118e-14
1.96492e-14
1.50222e-14
1.16013e-14
9.20613e-15
4.27549e-14
4.2644e-14
4.24133e-14
4.20451e-14
4.15127e-14
4.07811e-14
3.98081e-14
3.85476e-14
3.69549e-14
3.4995e-14
3.26542e-14
2.99524e-14
2.69543e-14
2.37732e-14
2.05618e-14
1.74901e-14
1.47126e-14
1.23376e-14
1.04111e-14
8.91959e-15
2.52544e-14
2.5205e-14
2.51023e-14
2.49386e-14
2.47024e-14
2.43783e-14
2.3948e-14
2.3391e-14
2.26868e-14
2.1818e-14
2.07747e-14
1.95589e-14
1.81894e-14
1.67043e-14
1.51592e-14
1.36216e-14
1.21606e-14
1.08352e-14
9.68557e-15
8.7292e-15
1.75264e-14
1.75017e-14
1.74503e-14
1.73686e-14
1.72507e-14
1.70894e-14
1.68755e-14
1.65988e-14
1.62489e-14
1.58164e-14
1.52946e-14
1.46819e-14
1.39835e-14
1.32131e-14
1.23929e-14
1.15522e-14
1.07238e-14
9.93958e-15
9.22592e-15
8.60093e-15
1.36921e-14
1.36785e-14
1.36503e-14
1.36055e-14
1.3541e-14
1.34529e-14
1.33362e-14
1.31855e-14
1.2995e-14
1.27593e-14
1.24742e-14
1.21375e-14
1.17504e-14
1.13182e-14
1.08504e-14
1.03606e-14
9.86533e-15
9.38205e-15
8.92709e-15
8.51378e-15
1.16111e-14
1.16031e-14
1.15865e-14
1.15601e-14
1.15222e-14
1.14705e-14
1.14022e-14
1.13142e-14
1.12031e-14
1.10656e-14
1.0899e-14
1.07018e-14
1.04739e-14
1.02172e-14
9.9363e-15
9.63791e-15
9.33073e-15
9.02461e-15
8.72947e-15
8.45429e-15
1.04035e-14
1.03985e-14
1.03882e-14
1.03718e-14
1.03483e-14
1.03163e-14
1.02743e-14
1.02202e-14
1.0152e-14
1.00677e-14
9.9657e-15
9.84474e-15
9.70454e-15
9.54595e-15
9.37113e-15
9.18367e-15
8.98838e-15
8.79093e-15
8.5974e-15
8.41361e-15
9.66784e-15
9.66461e-15
9.65792e-15
9.64734e-15
9.63224e-15
9.61175e-15
9.58485e-15
9.55035e-15
9.507e-15
9.45356e-15
9.38894e-15
9.31237e-15
9.22355e-15
9.12284e-15
9.01141e-15
8.89122e-15
8.76505e-15
8.63627e-15
8.50861e-15
8.38582e-15
9.20403e-15
9.20188e-15
9.19744e-15
9.19045e-15
9.18048e-15
9.16701e-15
9.14938e-15
9.12685e-15
9.09863e-15
9.06394e-15
9.0221e-15
8.9726e-15
8.91522e-15
8.85014e-15
8.77801e-15
8.69997e-15
8.61768e-15
8.53317e-15
8.44878e-15
8.36687e-15
8.90472e-15
8.90327e-15
8.90029e-15
8.89559e-15
8.88891e-15
8.87991e-15
8.86817e-15
8.85323e-15
8.83459e-15
8.81175e-15
8.78428e-15
8.75187e-15
8.71437e-15
8.67187e-15
8.62477e-15
8.57375e-15
8.51981e-15
8.46423e-15
8.40845e-15
8.354e-15
8.70867e-15
8.70768e-15
8.70566e-15
8.70247e-15
8.69796e-15
8.6919e-15
8.68402e-15
8.67403e-15
8.66162e-15
8.64646e-15
8.6283e-15
8.60694e-15
8.58228e-15
8.55438e-15
8.5235e-15
8.49005e-15
8.45465e-15
8.41811e-15
8.38134e-15
8.34529e-15
8.57914e-15
8.57846e-15
8.57708e-15
8.57492e-15
8.57186e-15
8.56776e-15
8.56246e-15
8.55577e-15
8.54747e-15
8.53739e-15
8.52535e-15
8.51124e-15
8.49499e-15
8.47666e-15
8.4564e-15
8.43448e-15
8.41128e-15
8.38732e-15
8.36317e-15
8.33943e-15
8.49322e-15
8.49276e-15
8.49182e-15
8.49035e-15
8.48828e-15
8.48552e-15
8.48195e-15
8.47746e-15
8.47193e-15
8.46523e-15
8.45726e-15
8.44794e-15
8.43725e-15
8.42523e-15
8.41196e-15
8.39763e-15
8.38248e-15
8.36683e-15
8.35105e-15
8.33551e-15
8.43621e-15
8.4359e-15
8.43526e-15
8.43427e-15
8.43287e-15
8.43101e-15
8.42863e-15
8.42563e-15
8.42195e-15
8.41751e-15
8.41225e-15
8.40612e-15
8.39912e-15
8.39126e-15
8.38261e-15
8.37328e-15
8.36343e-15
8.35327e-15
8.34301e-15
8.33291e-15
8.39847e-15
8.39826e-15
8.39783e-15
8.39717e-15
8.39623e-15
8.39499e-15
8.3934e-15
8.39141e-15
8.38897e-15
8.38605e-15
8.3826e-15
8.37859e-15
8.37402e-15
8.36891e-15
8.3633e-15
8.35726e-15
8.3509e-15
8.34433e-15
8.33771e-15
8.33119e-15
8.37359e-15
8.37345e-15
8.37317e-15
8.37272e-15
8.3721e-15
8.37128e-15
8.37022e-15
8.36891e-15
8.36731e-15
8.3654e-15
8.36315e-15
8.36054e-15
8.35759e-15
8.35428e-15
8.35067e-15
8.34679e-15
8.3427e-15
8.33849e-15
8.33425e-15
8.33007e-15
8.35729e-15
8.3572e-15
8.35701e-15
8.35671e-15
8.3563e-15
8.35576e-15
8.35507e-15
8.35421e-15
8.35317e-15
8.35193e-15
8.35047e-15
8.34879e-15
8.34689e-15
8.34477e-15
8.34246e-15
8.33998e-15
8.33737e-15
8.33469e-15
8.33199e-15
8.32934e-15
8.34667e-15
8.34661e-15
8.34649e-15
8.3463e-15
8.34603e-15
8.34567e-15
8.34523e-15
8.34467e-15
8.344e-15
8.3432e-15
8.34226e-15
8.34119e-15
8.33997e-15
8.33863e-15
8.33716e-15
8.33559e-15
8.33394e-15
8.33225e-15
8.33054e-15
8.32886e-15
8.33982e-15
8.33978e-15
8.3397e-15
8.33957e-15
8.3394e-15
8.33917e-15
8.33888e-15
8.33852e-15
8.33809e-15
8.33758e-15
8.33699e-15
8.33631e-15
8.33554e-15
8.33469e-15
8.33376e-15
8.33278e-15
8.33174e-15
8.33068e-15
8.32961e-15
8.32856e-15
8.33542e-15
8.3354e-15
8.33534e-15
8.33526e-15
8.33515e-15
8.33501e-15
8.33482e-15
8.3346e-15
8.33432e-15
8.334e-15
8.33363e-15
8.3332e-15
8.33271e-15
8.33218e-15
8.3316e-15
8.33099e-15
8.33035e-15
8.32969e-15
8.32902e-15
8.32837e-15
8.33263e-15
8.33261e-15
8.33258e-15
8.33253e-15
8.33246e-15
8.33237e-15
8.33225e-15
8.33211e-15
8.33194e-15
8.33173e-15
8.3315e-15
8.33123e-15
8.33093e-15
8.3306e-15
8.33024e-15
8.32986e-15
8.32947e-15
8.32906e-15
8.32865e-15
8.32825e-15
8.33087e-15
8.33086e-15
8.33084e-15
8.33081e-15
8.33076e-15
8.33071e-15
8.33063e-15
8.33054e-15
8.33044e-15
8.33031e-15
8.33017e-15
8.33e-15
8.32982e-15
8.32961e-15
8.32939e-15
8.32916e-15
8.32892e-15
8.32867e-15
8.32842e-15
8.32817e-15
8.32977e-15
8.32977e-15
8.32975e-15
8.32973e-15
8.32971e-15
8.32967e-15
8.32963e-15
8.32957e-15
8.3295e-15
8.32943e-15
8.32934e-15
8.32924e-15
8.32913e-15
8.329e-15
8.32887e-15
8.32873e-15
8.32858e-15
8.32843e-15
8.32828e-15
8.32813e-15
8.32909e-15
8.32909e-15
8.32908e-15
8.32907e-15
8.32905e-15
8.32903e-15
8.329e-15
8.32897e-15
8.32893e-15
8.32888e-15
8.32883e-15
8.32877e-15
8.3287e-15
8.32862e-15
8.32854e-15
8.32846e-15
8.32837e-15
8.32828e-15
8.32819e-15
8.3281e-15
8.32868e-15
8.32868e-15
8.32867e-15
8.32866e-15
8.32865e-15
8.32864e-15
8.32862e-15
8.3286e-15
8.32858e-15
8.32855e-15
8.32852e-15
8.32848e-15
8.32844e-15
8.3284e-15
8.32835e-15
8.3283e-15
8.32824e-15
8.32819e-15
8.32814e-15
8.32808e-15
8.32843e-15
8.32842e-15
8.32842e-15
8.32842e-15
8.32841e-15
8.3284e-15
8.32839e-15
8.32838e-15
8.32837e-15
8.32835e-15
8.32833e-15
8.32831e-15
8.32828e-15
8.32826e-15
8.32823e-15
8.3282e-15
8.32817e-15
8.32813e-15
8.3281e-15
8.32807e-15
8.32827e-15
8.32827e-15
8.32827e-15
8.32827e-15
8.32826e-15
8.32826e-15
8.32825e-15
8.32825e-15
8.32824e-15
8.32823e-15
8.32822e-15
8.3282e-15
8.32819e-15
8.32817e-15
8.32816e-15
8.32814e-15
8.32812e-15
8.3281e-15
8.32808e-15
8.32807e-15
8.32818e-15
8.32818e-15
8.32818e-15
8.32818e-15
8.32818e-15
8.32817e-15
8.32817e-15
8.32817e-15
8.32816e-15
8.32816e-15
8.32815e-15
8.32814e-15
8.32813e-15
8.32812e-15
8.32811e-15
8.3281e-15
8.32809e-15
8.32808e-15
8.32807e-15
8.32806e-15
8.32813e-15
8.32813e-15
8.32813e-15
8.32813e-15
8.32813e-15
8.32812e-15
8.32812e-15
8.32812e-15
8.32812e-15
8.32811e-15
8.32811e-15
8.32811e-15
8.3281e-15
8.3281e-15
8.32809e-15
8.32808e-15
8.32808e-15
8.32807e-15
8.32807e-15
8.32806e-15
8.3281e-15
8.3281e-15
8.3281e-15
8.3281e-15
8.3281e-15
8.3281e-15
8.32809e-15
8.32809e-15
8.32809e-15
8.32809e-15
8.32809e-15
8.32808e-15
8.32808e-15
8.32808e-15
8.32808e-15
8.32807e-15
8.32807e-15
8.32807e-15
8.32806e-15
8.32806e-15
8.32808e-15
8.32808e-15
8.32808e-15
8.32808e-15
8.32808e-15
8.32808e-15
8.32808e-15
8.32808e-15
8.32808e-15
8.32808e-15
8.32807e-15
8.32807e-15
8.32807e-15
8.32807e-15
8.32807e-15
8.32807e-15
8.32806e-15
8.32806e-15
8.32806e-15
8.32806e-15
8.32807e-15
8.32807e-15
8.32807e-15
8.32807e-15
8.32807e-15
8.32807e-15
8.32807e-15
8.32807e-15
8.32807e-15
8.32807e-15
8.32807e-15
8.32807e-15
8.32806e-15
8.32806e-15
8.32806e-15
8.32806e-15
8.32806e-15
8.32806e-15
8.32806e-15
8.32806e-15
8.32806e-15
8.32806e-15
8.32806e-15
8.32806e-15
8.32806e-15
8.32806e-15
8.32806e-15
8.32806e-15
8.32806e-15
8.32806e-15
8.32806e-15
8.32806e-15
8.32806e-15
8.32806e-15
8.32806e-15
8.32806e-15
8.32806e-15
8.32806e-15
8.32806e-15
8.32806e-15
8.32806e-15
8.32806e-15
8.32806e-15
8.32806e-15
8.32806e-15
8.32806e-15
8.32806e-15
8.32806e-15
8.32806e-15
8.32806e-15
8.32806e-15
8.32806e-15
8.32806e-15
8.32806e-15
8.32806e-15
8.32806e-15
8.32806e-15
8.32806e-15
8.32806e-15
8.32806e-15
8.32806e-15
8.32806e-15
8.32806e-15
8.32806e-15
8.32806e-15
8.32806e-15
8.32806e-15
8.32806e-15
8.32806e-15
8.32806e-15
8.32806e-15
8.32806e-15
8.32806e-15
8.32806e-15
8.32806e-15
8.32806e-15
8.32806e-15
8.32806e-15
8.32806e-15
8.32806e-15
8.32806e-15
8.32806e-15
8.32806e-15
8.32806e-15
8.32806e-15
8.32806e-15
8.32806e-15
8.32806e-15
8.32806e-15
8.32806e-15
8.32806e-15
8.32806e-15
8.32806e-15
8.32806e-15
8.32806e-15
8.32806e-15
8.32806e-15
8.32806e-15
8.32806e-15
8.32806e-15
)
;

boundaryField
{
    topWall
    {
        type            zeroGradient;
    }
    bottomWall
    {
        type            zeroGradient;
    }
    sideWallL
    {
        type            symmetry;
    }
    sideWallR
    {
        type            calculated;
        value           uniform 0;
    }
    frontAndBack
    {
        type            empty;
    }
}


// ************************************************************************* //
