/*--------------------------------*- C++ -*----------------------------------*\
  =========                 |
  \\      /  F ield         | OpenFOAM: The Open Source CFD Toolbox
   \\    /   O peration     | Website:  https://openfoam.org
    \\  /    A nd           | Version:  7
     \\/     M anipulation  |
\*---------------------------------------------------------------------------*/
FoamFile
{
    version     2.0;
    format      ascii;
    class       volScalarField;
    location    "16";
    object      rhot2;
}
// * * * * * * * * * * * * * * * * * * * * * * * * * * * * * * * * * * * * * //

dimensions      [1 -3 0 0 0 0 0];

internalField   nonuniform List<scalar> 
900
(
4.72888e-13
4.72576e-13
4.71913e-13
4.70821e-13
4.69166e-13
4.66749e-13
4.63274e-13
4.58318e-13
4.51274e-13
4.41273e-13
4.27083e-13
4.06969e-13
3.78528e-13
3.38575e-13
2.83314e-13
2.0965e-13
1.20266e-13
3.70667e-14
1.75124e-15
4.67164e-20
2.06226e-15
2.05782e-15
2.04844e-15
2.03305e-15
2.00992e-15
1.9765e-15
1.92923e-15
1.86332e-15
1.77258e-15
1.64948e-15
1.48582e-15
1.27464e-15
1.01449e-15
7.17055e-16
4.16779e-16
1.72524e-16
3.80918e-17
2.39307e-18
9.86092e-21
8.93917e-26
1.20052e-17
1.19601e-17
1.1865e-17
1.17099e-17
1.1479e-17
1.11497e-17
1.06926e-17
1.00714e-17
9.24615e-18
8.181e-18
6.85996e-18
5.3139e-18
3.65475e-18
2.09504e-18
9.02159e-19
2.44691e-19
3.07571e-20
1.04574e-21
3.95228e-24
7.17162e-28
1.00785e-19
1.0025e-19
9.91274e-20
9.73078e-20
9.46241e-20
9.08502e-20
8.57091e-20
7.89007e-20
7.01673e-20
5.94154e-20
4.69052e-20
3.34697e-20
2.06157e-20
1.02277e-20
3.67865e-21
8.17315e-22
8.83126e-23
3.3316e-24
3.12394e-26
9.67632e-29
1.29912e-21
1.29053e-21
1.27255e-21
1.2436e-21
1.20129e-21
1.14256e-21
1.06392e-21
9.62143e-22
8.35459e-22
6.85473e-22
5.19509e-22
3.52228e-22
2.04181e-22
9.49416e-23
3.2402e-23
7.20003e-24
8.97135e-25
5.40565e-26
1.55149e-27
3.62435e-29
2.68952e-23
2.66927e-23
2.62702e-23
2.55936e-23
2.46127e-23
2.32657e-23
2.14874e-23
1.92268e-23
1.64752e-23
1.33052e-23
9.90882e-24
6.60765e-24
3.79313e-24
1.78029e-24
6.40214e-25
1.63565e-25
2.76176e-26
2.99942e-27
2.36788e-28
2.10069e-29
9.18346e-25
9.11038e-25
8.95836e-25
8.71594e-25
8.36669e-25
7.89088e-25
7.26893e-25
6.48754e-25
5.54907e-25
4.48322e-25
3.35678e-25
2.27282e-25
1.34944e-25
6.77062e-26
2.75535e-26
8.75383e-27
2.13061e-27
4.11185e-28
7.23752e-29
1.51336e-29
5.22445e-26
5.18342e-26
5.09824e-26
4.96282e-26
4.76851e-26
4.5051e-26
4.16266e-26
3.73478e-26
3.22322e-26
2.64349e-26
2.02909e-26
1.43082e-26
9.07086e-27
5.05123e-27
2.41869e-27
9.8389e-28
3.43421e-28
1.08145e-28
3.40691e-29
1.23011e-29
4.93761e-27
4.90187e-27
4.82776e-27
4.71013e-27
4.5417e-27
4.31382e-27
4.018e-27
3.64833e-27
3.2051e-27
2.69895e-27
2.15426e-27
1.60921e-27
1.10992e-27
6.98185e-28
3.9739e-28
2.05038e-28
9.76896e-29
4.47736e-29
2.09896e-29
1.07453e-29
7.63312e-28
7.58571e-28
7.48743e-28
7.33155e-28
7.10844e-28
6.8065e-28
6.41384e-28
5.92111e-28
5.32553e-28
4.63577e-28
3.87636e-28
3.08911e-28
2.32879e-28
1.65188e-28
1.10134e-28
6.94395e-29
4.20649e-29
2.51334e-29
1.53107e-29
9.81924e-30
1.8642e-28
1.85495e-28
1.83577e-28
1.80536e-28
1.7618e-28
1.70276e-28
1.62571e-28
1.52841e-28
1.40956e-28
1.26963e-28
1.1117e-28
9.41958e-29
7.69454e-29
6.048e-29
4.57961e-29
3.35912e-29
2.41212e-29
1.7217e-29
1.24337e-29
9.23891e-30
6.76362e-29
6.73841e-29
6.68616e-29
6.60327e-29
6.48447e-29
6.32311e-29
6.11178e-29
5.84322e-29
5.51184e-29
5.11566e-29
4.65843e-29
4.15136e-29
3.61362e-29
3.07074e-29
2.55077e-29
2.07907e-29
1.67348e-29
1.34176e-29
1.08217e-29
8.86285e-30
3.35684e-29
3.34784e-29
3.3292e-29
3.29961e-29
3.25719e-29
3.1995e-29
3.12374e-29
3.02698e-29
2.90665e-29
2.76104e-29
2.59006e-29
2.39584e-29
2.18316e-29
1.95939e-29
1.73374e-29
1.51599e-29
1.31492e-29
1.13697e-29
9.85616e-30
8.61379e-30
2.09356e-29
2.08962e-29
2.08145e-29
2.0685e-29
2.04993e-29
2.02466e-29
1.99144e-29
1.94889e-29
1.89569e-29
1.8308e-29
1.75368e-29
1.66461e-29
1.56488e-29
1.4569e-29
1.3441e-29
1.23054e-29
1.12048e-29
1.01771e-29
9.25171e-30
8.44657e-30
1.52811e-29
1.52611e-29
1.52196e-29
1.51538e-29
1.50596e-29
1.49316e-29
1.47632e-29
1.45473e-29
1.42767e-29
1.39451e-29
1.35481e-29
1.30847e-29
1.25583e-29
1.19775e-29
1.13563e-29
1.07132e-29
1.00692e-29
9.44578e-30
8.86211e-30
8.33337e-30
1.23905e-29
1.23791e-29
1.23557e-29
1.23187e-29
1.22657e-29
1.21939e-29
1.20994e-29
1.19784e-29
1.18267e-29
1.16405e-29
1.14166e-29
1.11538e-29
1.08525e-29
1.05163e-29
1.01512e-29
9.76623e-30
9.3724e-30
8.98176e-30
8.60624e-30
8.25642e-30
1.07706e-29
1.07638e-29
1.07496e-29
1.07272e-29
1.06952e-29
1.0652e-29
1.05953e-29
1.05227e-29
1.04319e-29
1.03203e-29
1.01861e-29
1.00281e-29
9.8461e-30
9.64161e-30
9.41756e-30
9.17857e-30
8.93065e-30
8.68079e-30
8.43627e-30
8.20406e-30
9.8044e-30
9.80004e-30
9.79104e-30
9.77686e-30
9.75666e-30
9.72938e-30
9.69372e-30
9.64823e-30
9.59137e-30
9.52167e-30
9.43788e-30
9.33916e-30
9.22529e-30
9.09689e-30
8.95549e-30
8.80362e-30
8.64472e-30
8.4829e-30
8.32265e-30
8.16846e-30
9.20349e-30
9.20064e-30
9.19475e-30
9.18549e-30
9.17233e-30
9.15462e-30
9.13153e-30
9.10217e-30
9.06558e-30
9.02084e-30
8.96716e-30
8.90398e-30
8.83112e-30
8.74887e-30
8.65808e-30
8.56021e-30
8.45729e-30
8.3518e-30
8.24652e-30
8.14432e-30
8.8195e-30
8.81759e-30
8.81367e-30
8.80751e-30
8.79879e-30
8.78708e-30
8.77187e-30
8.75259e-30
8.72865e-30
8.69947e-30
8.66455e-30
8.62353e-30
8.57629e-30
8.52299e-30
8.46414e-30
8.40059e-30
8.33359e-30
8.26465e-30
8.19552e-30
8.12802e-30
8.56996e-30
8.56868e-30
8.56604e-30
8.56191e-30
8.55607e-30
8.54826e-30
8.53815e-30
8.52538e-30
8.50958e-30
8.49038e-30
8.46748e-30
8.44066e-30
8.40984e-30
8.37511e-30
8.33679e-30
8.29541e-30
8.25174e-30
8.20672e-30
8.16144e-30
8.11707e-30
8.40629e-30
8.40542e-30
8.40364e-30
8.40086e-30
8.39694e-30
8.39171e-30
8.38497e-30
8.37648e-30
8.36602e-30
8.35336e-30
8.3383e-30
8.32072e-30
8.30057e-30
8.27792e-30
8.25296e-30
8.22603e-30
8.19761e-30
8.16829e-30
8.13876e-30
8.10975e-30
8.2985e-30
8.29791e-30
8.29671e-30
8.29484e-30
8.29222e-30
8.28872e-30
8.28423e-30
8.27859e-30
8.27167e-30
8.26333e-30
8.25344e-30
8.24193e-30
8.22878e-30
8.21403e-30
8.19781e-30
8.18034e-30
8.16191e-30
8.1429e-30
8.12374e-30
8.10489e-30
8.2275e-30
8.22711e-30
8.2263e-30
8.22505e-30
8.2233e-30
8.22097e-30
8.21799e-30
8.21426e-30
8.2097e-30
8.20422e-30
8.19775e-30
8.19025e-30
8.1817e-30
8.17213e-30
8.16164e-30
8.15035e-30
8.13846e-30
8.1262e-30
8.11384e-30
8.10168e-30
8.18086e-30
8.1806e-30
8.18006e-30
8.17923e-30
8.17806e-30
8.17652e-30
8.17456e-30
8.17211e-30
8.16912e-30
8.16554e-30
8.16133e-30
8.15646e-30
8.15094e-30
8.14477e-30
8.13802e-30
8.13077e-30
8.12314e-30
8.11529e-30
8.10737e-30
8.09958e-30
8.15036e-30
8.15019e-30
8.14983e-30
8.14928e-30
8.14852e-30
8.1475e-30
8.14622e-30
8.14462e-30
8.14267e-30
8.14035e-30
8.13763e-30
8.1345e-30
8.13095e-30
8.127e-30
8.12268e-30
8.11806e-30
8.1132e-30
8.1082e-30
8.10317e-30
8.09822e-30
8.13054e-30
8.13042e-30
8.13019e-30
8.12983e-30
8.12933e-30
8.12867e-30
8.12784e-30
8.1268e-30
8.12555e-30
8.12406e-30
8.12231e-30
8.12031e-30
8.11804e-30
8.11553e-30
8.11279e-30
8.10987e-30
8.1068e-30
8.10364e-30
8.10046e-30
8.09734e-30
8.11774e-30
8.11767e-30
8.11752e-30
8.11729e-30
8.11696e-30
8.11654e-30
8.116e-30
8.11534e-30
8.11453e-30
8.11358e-30
8.11247e-30
8.1112e-30
8.10977e-30
8.10819e-30
8.10646e-30
8.10462e-30
8.1027e-30
8.10072e-30
8.09873e-30
8.09678e-30
8.10955e-30
8.1095e-30
8.10941e-30
8.10926e-30
8.10905e-30
8.10878e-30
8.10844e-30
8.10801e-30
8.10751e-30
8.1069e-30
8.10621e-30
8.10541e-30
8.10451e-30
8.10352e-30
8.10244e-30
8.1013e-30
8.1001e-30
8.09887e-30
8.09763e-30
8.09642e-30
8.10435e-30
8.10432e-30
8.10426e-30
8.10416e-30
8.10403e-30
8.10386e-30
8.10364e-30
8.10338e-30
8.10306e-30
8.10268e-30
8.10224e-30
8.10175e-30
8.10119e-30
8.10057e-30
8.09991e-30
8.0992e-30
8.09846e-30
8.0977e-30
8.09694e-30
8.09619e-30
8.10107e-30
8.10105e-30
8.10101e-30
8.10095e-30
8.10087e-30
8.10076e-30
8.10063e-30
8.10046e-30
8.10027e-30
8.10003e-30
8.09976e-30
8.09946e-30
8.09911e-30
8.09873e-30
8.09832e-30
8.09789e-30
8.09744e-30
8.09698e-30
8.09651e-30
8.09605e-30
8.09903e-30
8.09902e-30
8.09899e-30
8.09896e-30
8.0989e-30
8.09884e-30
8.09875e-30
8.09865e-30
8.09853e-30
8.09839e-30
8.09822e-30
8.09803e-30
8.09782e-30
8.09759e-30
8.09734e-30
8.09708e-30
8.09681e-30
8.09652e-30
8.09624e-30
8.09597e-30
8.09776e-30
8.09776e-30
8.09774e-30
8.09772e-30
8.09769e-30
8.09765e-30
8.0976e-30
8.09753e-30
8.09746e-30
8.09737e-30
8.09727e-30
8.09716e-30
8.09703e-30
8.09689e-30
8.09674e-30
8.09658e-30
8.09642e-30
8.09625e-30
8.09608e-30
8.09591e-30
8.09699e-30
8.09699e-30
8.09698e-30
8.09696e-30
8.09694e-30
8.09692e-30
8.09689e-30
8.09685e-30
8.09681e-30
8.09675e-30
8.09669e-30
8.09662e-30
8.09655e-30
8.09646e-30
8.09637e-30
8.09628e-30
8.09618e-30
8.09608e-30
8.09598e-30
8.09588e-30
8.09652e-30
8.09652e-30
8.09651e-30
8.0965e-30
8.09649e-30
8.09648e-30
8.09646e-30
8.09644e-30
8.09641e-30
8.09638e-30
8.09634e-30
8.0963e-30
8.09626e-30
8.09621e-30
8.09615e-30
8.0961e-30
8.09604e-30
8.09598e-30
8.09592e-30
8.09586e-30
8.09624e-30
8.09624e-30
8.09623e-30
8.09623e-30
8.09622e-30
8.09621e-30
8.0962e-30
8.09619e-30
8.09617e-30
8.09615e-30
8.09613e-30
8.09611e-30
8.09608e-30
8.09605e-30
8.09602e-30
8.09599e-30
8.09595e-30
8.09592e-30
8.09588e-30
8.09585e-30
8.09607e-30
8.09607e-30
8.09607e-30
8.09606e-30
8.09606e-30
8.09605e-30
8.09605e-30
8.09604e-30
8.09603e-30
8.09602e-30
8.09601e-30
8.09599e-30
8.09598e-30
8.09596e-30
8.09594e-30
8.09592e-30
8.0959e-30
8.09588e-30
8.09586e-30
8.09584e-30
8.09597e-30
8.09597e-30
8.09597e-30
8.09597e-30
8.09596e-30
8.09596e-30
8.09596e-30
8.09595e-30
8.09595e-30
8.09594e-30
8.09593e-30
8.09593e-30
8.09592e-30
8.09591e-30
8.0959e-30
8.09589e-30
8.09587e-30
8.09586e-30
8.09585e-30
8.09584e-30
8.09591e-30
8.09591e-30
8.09591e-30
8.09591e-30
8.09591e-30
8.09591e-30
8.0959e-30
8.0959e-30
8.0959e-30
8.0959e-30
8.09589e-30
8.09589e-30
8.09588e-30
8.09588e-30
8.09587e-30
8.09586e-30
8.09586e-30
8.09585e-30
8.09584e-30
8.09584e-30
8.09588e-30
8.09588e-30
8.09588e-30
8.09588e-30
8.09588e-30
8.09588e-30
8.09587e-30
8.09587e-30
8.09587e-30
8.09587e-30
8.09587e-30
8.09586e-30
8.09586e-30
8.09586e-30
8.09585e-30
8.09585e-30
8.09585e-30
8.09584e-30
8.09584e-30
8.09584e-30
8.09586e-30
8.09586e-30
8.09586e-30
8.09586e-30
8.09586e-30
8.09586e-30
8.09586e-30
8.09586e-30
8.09585e-30
8.09585e-30
8.09585e-30
8.09585e-30
8.09585e-30
8.09585e-30
8.09585e-30
8.09584e-30
8.09584e-30
8.09584e-30
8.09584e-30
8.09584e-30
8.09585e-30
8.09585e-30
8.09585e-30
8.09585e-30
8.09585e-30
8.09585e-30
8.09585e-30
8.09585e-30
8.09585e-30
8.09585e-30
8.09584e-30
8.09584e-30
8.09584e-30
8.09584e-30
8.09584e-30
8.09584e-30
8.09584e-30
8.09584e-30
8.09584e-30
8.09583e-30
8.09584e-30
8.09584e-30
8.09584e-30
8.09584e-30
8.09584e-30
8.09584e-30
8.09584e-30
8.09584e-30
8.09584e-30
8.09584e-30
8.09584e-30
8.09584e-30
8.09584e-30
8.09584e-30
8.09584e-30
8.09584e-30
8.09584e-30
8.09584e-30
8.09584e-30
8.09583e-30
8.09584e-30
8.09584e-30
8.09584e-30
8.09584e-30
8.09584e-30
8.09584e-30
8.09584e-30
8.09584e-30
8.09584e-30
8.09584e-30
8.09584e-30
8.09584e-30
8.09584e-30
8.09584e-30
8.09584e-30
8.09584e-30
8.09584e-30
8.09584e-30
8.09583e-30
8.09583e-30
8.09584e-30
8.09584e-30
8.09584e-30
8.09584e-30
8.09584e-30
8.09584e-30
8.09584e-30
8.09584e-30
8.09584e-30
8.09584e-30
8.09584e-30
8.09584e-30
8.09584e-30
8.09584e-30
8.09584e-30
8.09584e-30
8.09584e-30
8.09583e-30
8.09583e-30
8.09583e-30
)
;

boundaryField
{
    topWall
    {
        type            zeroGradient;
    }
    bottomWall
    {
        type            zeroGradient;
    }
    sideWallL
    {
        type            symmetry;
    }
    sideWallR
    {
        type            zeroGradient;
    }
    frontAndBack
    {
        type            empty;
    }
}


// ************************************************************************* //
