/*--------------------------------*- C++ -*----------------------------------*\
  =========                 |
  \\      /  F ield         | OpenFOAM: The Open Source CFD Toolbox
   \\    /   O peration     | Website:  https://openfoam.org
    \\  /    A nd           | Version:  7
     \\/     M anipulation  |
\*---------------------------------------------------------------------------*/
FoamFile
{
    version     2.0;
    format      ascii;
    class       volScalarField;
    location    "16";
    object      T;
}
// * * * * * * * * * * * * * * * * * * * * * * * * * * * * * * * * * * * * * //

dimensions      [0 0 0 1 0 0 0];

internalField   nonuniform List<scalar> 
900
(
417.966
417.962
417.954
417.94
417.92
417.89
417.848
417.788
417.701
417.578
417.4
417.14
416.753
416.162
415.23
413.673
410.844
405.001
390.6
347.482
392.405
392.393
392.37
392.331
392.273
392.188
392.067
391.895
391.65
391.301
390.8
390.073
389.003
387.399
384.931
381.004
374.481
363.088
342.269
303.935
370.772
370.755
370.718
370.657
370.566
370.434
370.246
369.98
369.604
369.072
368.315
367.232
365.666
363.376
359.977
354.852
347
334.852
316.242
289.327
352.558
352.536
352.488
352.41
352.293
352.124
351.886
351.55
351.079
350.419
349.493
348.189
346.345
343.723
339.98
334.621
326.966
316.177
301.496
282.993
337.31
337.284
337.228
337.138
337.004
336.811
336.539
336.159
335.633
334.904
333.896
332.501
330.574
327.913
324.252
319.25
312.509
303.656
292.546
279.633
324.624
324.596
324.536
324.439
324.295
324.089
323.802
323.405
322.859
322.114
321.098
319.719
317.857
315.357
312.031
307.665
302.054
295.068
286.776
277.602
314.141
314.112
314.051
313.952
313.806
313.599
313.312
312.919
312.385
311.664
310.698
309.41
307.708
305.481
302.605
298.956
294.441
289.042
282.88
276.272
305.541
305.512
305.453
305.356
305.215
305.015
304.741
304.368
303.868
303.202
302.323
301.171
299.679
297.772
295.371
292.41
288.857
284.736
280.163
275.36
298.539
298.512
298.455
298.365
298.233
298.047
297.795
297.455
297.003
296.41
295.637
294.642
293.376
291.79
289.838
287.487
284.734
281.615
278.225
274.716
292.883
292.859
292.807
292.725
292.605
292.438
292.213
291.912
291.517
291.004
290.345
289.509
288.462
287.175
285.619
283.784
281.675
279.331
276.822
274.252
288.353
288.331
288.286
288.213
288.107
287.962
287.766
287.507
287.171
286.738
286.19
285.504
284.657
283.632
282.414
281
279.401
277.65
275.797
273.915
284.756
284.737
284.698
284.635
284.544
284.42
284.254
284.037
283.757
283.401
282.954
282.402
281.73
280.927
279.987
278.91
277.708
276.407
275.045
273.668
281.925
281.909
281.875
281.822
281.746
281.643
281.505
281.326
281.098
280.811
280.454
280.018
279.493
278.874
278.156
277.345
276.449
275.489
274.49
273.486
279.717
279.703
279.676
279.632
279.569
279.485
279.373
279.229
279.046
278.818
278.538
278.199
277.795
277.323
276.783
276.177
275.515
274.81
274.082
273.353
278.01
277.999
277.977
277.941
277.891
277.823
277.734
277.62
277.476
277.299
277.082
276.822
276.516
276.161
275.757
275.31
274.824
274.31
273.782
273.255
276.704
276.695
276.677
276.649
276.609
276.556
276.486
276.397
276.286
276.15
275.984
275.788
275.558
275.294
274.996
274.668
274.315
273.943
273.562
273.183
275.713
275.707
275.693
275.671
275.639
275.598
275.544
275.476
275.391
275.288
275.164
275.017
274.847
274.653
274.435
274.197
273.942
273.674
273.402
273.131
274.97
274.964
274.954
274.937
274.913
274.881
274.84
274.789
274.725
274.648
274.556
274.448
274.323
274.182
274.024
273.853
273.67
273.479
273.285
273.093
274.417
274.413
274.404
274.392
274.374
274.35
274.319
274.281
274.234
274.177
274.109
274.031
273.94
273.838
273.725
273.603
273.473
273.338
273.201
273.065
274.009
274.006
274
273.991
273.977
273.96
273.937
273.909
273.874
273.833
273.784
273.727
273.662
273.59
273.51
273.423
273.331
273.237
273.141
273.046
273.712
273.71
273.706
273.699
273.689
273.676
273.659
273.639
273.614
273.584
273.549
273.509
273.463
273.411
273.355
273.294
273.23
273.164
273.098
273.032
273.498
273.497
273.493
273.488
273.481
273.472
273.46
273.445
273.427
273.406
273.381
273.353
273.321
273.285
273.245
273.203
273.159
273.113
273.067
273.022
273.345
273.344
273.342
273.338
273.333
273.326
273.318
273.307
273.295
273.28
273.263
273.243
273.22
273.195
273.168
273.139
273.109
273.077
273.046
273.015
273.237
273.236
273.234
273.232
273.228
273.223
273.217
273.21
273.201
273.191
273.179
273.165
273.15
273.133
273.114
273.094
273.074
273.053
273.031
273.01
273.161
273.16
273.159
273.157
273.155
273.152
273.147
273.142
273.136
273.129
273.121
273.112
273.101
273.09
273.077
273.064
273.05
273.035
273.021
273.007
273.108
273.108
273.107
273.106
273.104
273.102
273.099
273.096
273.091
273.087
273.081
273.075
273.068
273.06
273.051
273.042
273.033
273.024
273.014
273.005
273.072
273.072
273.071
273.07
273.069
273.068
273.066
273.064
273.061
273.058
273.054
273.05
273.045
273.04
273.034
273.028
273.022
273.016
273.009
273.003
273.048
273.047
273.047
273.046
273.046
273.045
273.043
273.042
273.04
273.038
273.035
273.033
273.029
273.026
273.022
273.018
273.014
273.01
273.006
273.002
273.031
273.031
273.031
273.03
273.03
273.029
273.028
273.027
273.026
273.025
273.023
273.021
273.019
273.017
273.014
273.012
273.009
273.007
273.004
273.001
273.02
273.02
273.02
273.02
273.019
273.019
273.018
273.018
273.017
273.016
273.015
273.014
273.012
273.011
273.009
273.008
273.006
273.004
273.003
273.001
273.013
273.013
273.013
273.013
273.012
273.012
273.012
273.011
273.011
273.01
273.009
273.009
273.008
273.007
273.006
273.005
273.004
273.003
273.002
273.001
273.008
273.008
273.008
273.008
273.008
273.008
273.007
273.007
273.007
273.006
273.006
273.006
273.005
273.004
273.004
273.003
273.002
273.002
273.001
273
273.005
273.005
273.005
273.005
273.005
273.005
273.005
273.004
273.004
273.004
273.004
273.003
273.003
273.003
273.002
273.002
273.002
273.001
273.001
273
273.003
273.003
273.003
273.003
273.003
273.003
273.003
273.003
273.003
273.003
273.002
273.002
273.002
273.002
273.001
273.001
273.001
273.001
273
273
273.002
273.002
273.002
273.002
273.002
273.002
273.002
273.002
273.002
273.002
273.001
273.001
273.001
273.001
273.001
273.001
273.001
273
273
273
273.001
273.001
273.001
273.001
273.001
273.001
273.001
273.001
273.001
273.001
273.001
273.001
273.001
273.001
273.001
273
273
273
273
273
273.001
273.001
273.001
273.001
273.001
273.001
273.001
273.001
273.001
273.001
273.001
273
273
273
273
273
273
273
273
273
273
273
273
273
273
273
273
273
273
273
273
273
273
273
273
273
273
273
273
273
273
273
273
273
273
273
273
273
273
273
273
273
273
273
273
273
273
273
273
273
273
273
273
273
273
273
273
273
273
273
273
273
273
273
273
273
273
273
273
273
273
273
273
273
273
273
273
273
273
273
273
273
273
273
273
273
273
273
273
273
273
273
273
273
273
273
273
273
273
273
273
273
273
273
273
273
273
273
273
273
273
273
273
273
273
273
273
273
273
273
273
273
273
273
273
273
273
273
273
273
273
273
273
273
273
273
273
273
273
273
273
273
273
273
273
273
273
273
273
273
273
273
273
273
273
273
273
273
273
273
273
273
273
273
273
273
273
273
273
273
)
;

boundaryField
{
    topWall
    {
        type            zeroGradient;
    }
    bottomWall
    {
        type            codedFixedValue;
        value           uniform 433;
        name            heating;
        code            #{
            const scalar t = this->db().time().value();
            const scalar Ttemp = 273 + 10*t;
            operator==(Ttemp);
        #};
    }
    sideWallL
    {
        type            symmetry;
    }
    sideWallR
    {
        type            fixedValue;
        value           uniform 273;
    }
    frontAndBack
    {
        type            empty;
    }
}


// ************************************************************************* //
