/*--------------------------------*- C++ -*----------------------------------*\
  =========                 |
  \\      /  F ield         | OpenFOAM: The Open Source CFD Toolbox
   \\    /   O peration     | Website:  https://openfoam.org
    \\  /    A nd           | Version:  7
     \\/     M anipulation  |
\*---------------------------------------------------------------------------*/
FoamFile
{
    version     2.0;
    format      ascii;
    class       volScalarField;
    location    "3";
    object      gradTx;
}
// * * * * * * * * * * * * * * * * * * * * * * * * * * * * * * * * * * * * * //

dimensions      [0 -1 0 1 0 0 0];

internalField   nonuniform List<scalar> 
900
(
-0.000372604
-0.00155578
-0.00455997
-0.0128262
-0.0355093
-0.0966768
-0.258123
-0.674561
-1.72403
-4.31032
-10.5576
-25.4137
-60.4475
-143.357
-343.995
-854.49
-2269.9
-6694.4
-22519.1
-86168.7
-0.00102335
-0.00426809
-0.0124863
-0.035039
-0.0967365
-0.262508
-0.698125
-1.81565
-4.61238
-11.4416
-27.7321
-65.7796
-153.1
-351.032
-796.974
-1802.15
-4076.3
-9196
-20175.8
-39023.4
-0.00144163
-0.00600046
-0.0174957
-0.0488903
-0.134307
-0.362328
-0.956878
-2.46767
-6.20402
-15.191
-36.2117
-84.0391
-189.956
-418.375
-897.868
-1874.36
-3783.69
-7272.54
-12824.2
-18927.3
-0.00157442
-0.00653539
-0.01897
-0.052713
-0.143853
-0.38509
-1.00777
-2.5709
-6.37971
-15.3743
-35.9327
-81.3519
-178.181
-376.855
-767.355
-1496.09
-2764.85
-4752.56
-7330.84
-9466.48
-0.00146081
-0.00604429
-0.0174517
-0.0481749
-0.130459
-0.346126
-0.896443
-2.25924
-5.52627
-13.091
-29.9704
-66.1714
-140.549
-286.248
-556.383
-1024.69
-1767.71
-2803.73
-3965.07
-4758.24
-0.00119586
-0.00493055
-0.0141533
-0.038789
-0.104167
-0.273734
-0.701191
-1.74484
-4.20543
-9.79146
-21.9653
-47.3448
-97.7318
-192.414
-359.297
-631.353
-1032.08
-1543.15
-2058.28
-2364.79
-0.0008818
-0.00362215
-0.0103341
-0.0281095
-0.0748364
-0.194735
-0.493291
-1.21199
-2.87893
-6.59173
-14.5045
-30.5729
-61.5
-117.522
-212.076
-358.55
-561.815
-803.831
-1029.33
-1150.4
-0.000593586
-0.00242899
-0.00688694
-0.0185906
-0.0490649
-0.126429
-0.316758
-0.768675
-1.80052
-4.05778
-8.76977
-18.1121
-35.6022
-66.2857
-116.196
-190.309
-288.345
-398.999
-496.186
-544.367
-0.000368313
-0.00150143
-0.00423062
-0.0113339
-0.0296571
-0.0756913
-0.187629
-0.44995
-1.0401
-2.30963
-4.90989
-9.95514
-19.1716
-34.8965
-59.6839
-95.2211
-140.443
-189.393
-230.487
-249.595
-0.00021223
-0.000861916
-0.00241384
-0.00641892
-0.0166564
-0.0421197
-0.103351
-0.245075
-0.559535
-1.22563
-2.5665
-5.11822
-9.67962
-17.2764
-28.9354
-45.1684
-65.1851
-86.1442
-103.133
-110.625
-0.000114254
-0.000462314
-0.00128704
-0.00339799
-0.00874669
-0.0219234
-0.0532768
-0.125007
-0.282133
-0.610264
-1.26051
-2.47664
-4.60936
-8.08751
-13.305
-20.3936
-28.9117
-37.5966
-44.4434
-47.3312
-5.77546e-05
-0.000232867
-0.000644558
-0.00168998
-0.00431671
-0.0107291
-0.0258361
-0.0600247
-0.134029
-0.286578
-0.584602
-1.13339
-2.07965
-3.5949
-5.82382
-8.79019
-12.2795
-15.7612
-18.4454
-19.535
-2.75289e-05
-0.000110619
-0.000304496
-0.000793075
-0.0020109
-0.00495831
-0.0118377
-0.0272493
-0.0602447
-0.127454
-0.257072
-0.49245
-0.892268
-1.52234
-2.43367
-3.62546
-5.00263
-6.35266
-7.37464
-7.77596
-1.2419e-05
-4.97398e-05
-0.000136194
-0.000352479
-0.000887496
-0.00217186
-0.00514345
-0.0117381
-0.0257142
-0.0538731
-0.107547
-0.203803
-0.365142
-0.615851
-0.973209
-1.4336
-1.9577
-2.46396
-2.84146
-2.98545
-5.31886e-06
-2.12378e-05
-5.78622e-05
-0.000148848
-0.000372291
-0.00090458
-0.00212604
-0.00481301
-0.0104543
-0.021707
-0.0429286
-0.0805587
-0.142887
-0.238549
-0.373177
-0.544402
-0.736852
-0.920472
-1.05566
-1.10592
-2.16942e-06
-8.63567e-06
-2.34169e-05
-5.98934e-05
-0.000148857
-0.000359252
-0.000838344
-0.00188365
-0.00405925
-0.00835913
-0.0163899
-0.0304853
-0.0535852
-0.0886511
-0.137452
-0.198828
-0.267065
-0.331491
-0.378417
-0.395471
-8.45169e-07
-3.3529e-06
-9.05072e-06
-2.3022e-05
-5.68733e-05
-0.000136386
-0.000316135
-0.000705332
-0.00150885
-0.00308351
-0.00599841
-0.0110674
-0.0192953
-0.0316637
-0.0487073
-0.0699347
-0.0933131
-0.115188
-0.130975
-0.136597
-3.1408e-07
-1.24378e-06
-3.34781e-06
-8.47355e-06
-2.08108e-05
-4.96026e-05
-0.000114253
-0.000253239
-0.000538033
-0.00109178
-0.00210849
-0.00386169
-0.00668292
-0.0108867
-0.0166289
-0.0237196
-0.0314647
-0.0386556
-0.0438037
-0.0456039
-1.11131e-07
-4.41474e-07
-1.18771e-06
-2.99223e-06
-7.30837e-06
-1.73167e-05
-3.96508e-05
-8.73465e-05
-0.000184394
-0.000371721
-0.000713086
-0.0012972
-0.00222978
-0.00360842
-0.00547688
-0.00776658
-0.0102496
-0.0125393
-0.0141671
-0.0147271
-3.77777e-08
-1.50772e-07
-4.04035e-07
-1.0161e-06
-2.46758e-06
-5.81217e-06
-1.32366e-05
-2.89933e-05
-6.08424e-05
-0.000121901
-0.0002324
-0.000420139
-0.000717731
-0.00115452
-0.00174233
-0.00245778
-0.00322867
-0.00393532
-0.0044346
-0.00460381
-1.32137e-08
-4.91279e-08
-1.32137e-07
-3.32884e-07
-8.01463e-07
-1.87855e-06
-4.25651e-06
-9.27518e-06
-1.93583e-05
-3.85634e-05
-7.30944e-05
-0.000131382
-0.000223169
-0.000357011
-0.000535983
-0.000752493
-0.000984453
-0.00119595
-0.00134457
-0.00139427
-3.55754e-09
-1.42302e-08
-4.11658e-08
-1.06387e-07
-2.50891e-07
-5.85808e-07
-1.32103e-06
-2.86263e-06
-5.94549e-06
-1.17843e-05
-2.22165e-05
-3.97179e-05
-6.71136e-05
-0.000106822
-0.000159611
-0.000223123
-0.000290819
-0.000352251
-0.000395207
-0.000409395
-2.37169e-09
-4.40457e-09
-1.25361e-08
-3.18484e-08
-7.50471e-08
-1.7703e-07
-3.9675e-07
-8.5364e-07
-1.76572e-06
-3.48283e-06
-6.53333e-06
-1.16216e-05
-1.95411e-05
-3.09597e-05
-4.60591e-05
-6.41336e-05
-8.33103e-05
-0.000100638
-0.000112701
-0.000116642
-1.01644e-09
-1.18585e-09
-3.72694e-09
-9.65618e-09
-2.13452e-08
-5.13302e-08
-1.15535e-07
-2.4547e-07
-5.0517e-07
-9.95603e-07
-1.86161e-06
-3.29547e-06
-5.51402e-06
-8.69988e-06
-1.28918e-05
-1.78873e-05
-2.31636e-05
-2.7913e-05
-3.12076e-05
-3.22723e-05
-1.69407e-10
5.0822e-10
-5.0822e-10
-2.87991e-09
-5.75982e-09
-1.49078e-08
-3.33731e-08
-6.89485e-08
-1.38744e-07
-2.73761e-07
-5.1381e-07
-9.05817e-07
-1.50975e-06
-2.37288e-06
-3.50333e-06
-4.84367e-06
-6.25669e-06
-7.52352e-06
-8.39833e-06
-8.67802e-06
-1.69407e-09
-6.77626e-10
6.77626e-10
-8.47033e-10
-2.03288e-09
-4.91279e-09
-8.13152e-09
-1.79571e-08
-3.69306e-08
-7.28448e-08
-1.36881e-07
-2.41066e-07
-4.00477e-07
-6.2816e-07
-9.24791e-07
-1.27563e-06
-1.6424e-06
-1.97274e-06
-2.19907e-06
-2.27056e-06
-1.69407e-10
0
1.69407e-10
-5.0822e-10
-3.38813e-10
-1.01644e-09
-2.5411e-09
-4.06576e-09
-9.31736e-09
-1.84653e-08
-3.42201e-08
-6.13252e-08
-1.03677e-07
-1.62122e-07
-2.36661e-07
-3.26616e-07
-4.20128e-07
-5.04154e-07
-5.61583e-07
-5.78693e-07
-3.38813e-10
1.18585e-09
3.38813e-10
0
1.69407e-10
-1.69407e-09
-2.03288e-09
0
-2.20229e-09
-3.89635e-09
-7.7927e-09
-1.50772e-08
-2.43945e-08
-3.998e-08
-5.94617e-08
-8.30092e-08
-1.05201e-07
-1.2553e-07
-1.3993e-07
-1.43487e-07
-5.0822e-10
1.18585e-09
5.0822e-10
0
5.0822e-10
-1.01644e-09
-1.52466e-09
8.47033e-10
-1.69407e-10
-8.47033e-10
-1.69407e-09
-3.55754e-09
-4.40457e-09
-8.80914e-09
-1.49078e-08
-2.15146e-08
-2.60886e-08
-3.01544e-08
-3.42201e-08
-3.48978e-08
3.38813e-10
2.03288e-09
1.35525e-09
3.38813e-10
1.69407e-10
3.38813e-10
-5.0822e-10
-1.18585e-09
-5.0822e-10
0
1.69407e-10
3.38813e-10
-3.38813e-10
-1.69407e-09
-3.38813e-09
-6.26804e-09
-7.11508e-09
-7.11508e-09
-7.96211e-09
-7.6233e-09
8.47033e-10
2.87991e-09
8.47033e-10
-2.37169e-09
-5.0822e-10
2.20229e-09
1.69407e-09
-1.69407e-09
-3.04932e-09
8.47033e-10
2.20229e-09
6.77626e-10
1.69407e-09
5.0822e-10
-1.69407e-09
-3.72694e-09
-2.5411e-09
-1.35525e-09
-3.38813e-10
-1.69407e-09
5.0822e-10
5.0822e-10
3.38813e-10
-8.47033e-10
-3.38813e-10
3.38813e-10
8.47033e-10
8.47033e-10
-1.18585e-09
-5.0822e-10
3.21873e-09
5.0822e-10
-1.35525e-09
1.69407e-10
-1.35525e-09
-2.37169e-09
1.18585e-09
1.18585e-09
1.69407e-10
-1.35525e-09
8.47033e-10
1.18585e-09
-3.38813e-10
-1.35525e-09
5.0822e-10
5.0822e-10
-5.0822e-10
2.20229e-09
-1.69407e-10
-1.69407e-09
1.69407e-09
-3.38813e-10
-8.47033e-10
-3.38813e-10
3.38813e-10
-5.0822e-10
-3.38813e-10
5.0822e-10
-1.69407e-10
5.0822e-10
-3.38813e-10
-3.38813e-10
0
0
3.38813e-10
8.47033e-10
0
0
-1.35525e-09
0
1.69407e-10
-5.0822e-10
3.38813e-10
5.0822e-10
3.38813e-10
-1.69407e-09
1.01644e-09
8.47033e-10
-1.69407e-10
-1.18585e-09
1.01644e-09
1.18585e-09
6.77626e-10
5.0822e-10
0
-1.18585e-09
-1.35525e-09
-8.47033e-10
1.01644e-09
6.77626e-10
0
1.69407e-10
0
3.38813e-10
-8.47033e-10
-1.18585e-09
3.38813e-10
5.0822e-10
1.18585e-09
-1.69407e-09
-1.69407e-10
5.0822e-10
0
-3.38813e-10
0
-5.0822e-10
-5.0822e-10
8.47033e-10
0
0
-3.38813e-10
0
1.18585e-09
8.47033e-10
-6.77626e-10
-1.69407e-10
5.0822e-10
5.0822e-10
-5.0822e-10
-1.69407e-09
-5.0822e-10
-1.01644e-09
1.69407e-09
2.03288e-09
1.69407e-10
-5.0822e-10
-3.38813e-10
3.38813e-10
3.38813e-10
1.69407e-10
3.38813e-10
-8.47033e-10
-6.77626e-10
-5.0822e-10
8.47033e-10
8.47033e-10
-5.0822e-10
3.38813e-10
8.47033e-10
-1.52466e-09
-1.35525e-09
-1.35525e-09
8.47033e-10
8.47033e-10
1.69407e-10
1.18585e-09
-3.38813e-10
-1.69407e-10
8.47033e-10
1.69407e-09
0
-1.52466e-09
-1.01644e-09
-3.38813e-10
5.0822e-10
3.38813e-10
-3.38813e-10
-5.0822e-10
8.47033e-10
-8.47033e-10
-1.18585e-09
0
8.47033e-10
-1.18585e-09
-5.0822e-10
1.35525e-09
1.52466e-09
-8.47033e-10
-1.52466e-09
2.03288e-09
2.20229e-09
-1.86347e-09
-1.69407e-09
5.0822e-10
8.47033e-10
5.0822e-10
3.38813e-10
-1.18585e-09
-1.01644e-09
-3.38813e-10
6.77626e-10
8.47033e-10
1.69407e-10
2.37169e-09
1.69407e-09
-1.35525e-09
-2.87991e-09
-1.69407e-09
8.47033e-10
3.04932e-09
1.69407e-09
-1.35525e-09
-1.69407e-09
5.0822e-10
-8.47033e-10
0
-8.47033e-10
-5.0822e-10
8.47033e-10
-3.38813e-10
1.35525e-09
2.03288e-09
2.5411e-09
8.47033e-10
-5.0822e-10
-8.47033e-10
-2.03288e-09
-6.77626e-10
-1.69407e-10
8.47033e-10
1.35525e-09
0
-1.69407e-10
1.69407e-10
0
-1.69407e-10
-8.47033e-10
0
1.69407e-10
-8.47033e-10
5.0822e-10
1.69407e-09
1.35525e-09
1.01644e-09
1.69407e-10
0
-5.0822e-10
-3.38813e-10
0
0
8.47033e-10
-5.0822e-10
-1.69407e-09
-3.38813e-10
1.18585e-09
8.47033e-10
-8.47033e-10
1.69407e-10
3.38813e-10
-5.0822e-10
-5.0822e-10
-3.38813e-10
8.47033e-10
1.18585e-09
3.38813e-10
-1.52466e-09
-1.01644e-09
1.01644e-09
6.77626e-10
-3.38813e-10
3.38813e-10
0
-6.77626e-10
0
0
-5.0822e-10
-8.47033e-10
0
8.47033e-10
0
3.38813e-10
8.47033e-10
-5.0822e-10
-1.69407e-09
1.69407e-09
0
-3.38813e-09
0
1.69407e-09
3.38813e-10
1.01644e-09
-5.0822e-10
-8.47033e-10
3.38813e-10
-8.47033e-10
-1.01644e-09
-5.0822e-10
-3.38813e-10
3.38813e-10
8.47033e-10
-1.69407e-09
-1.18585e-09
0
-6.77626e-10
3.38813e-10
-3.38813e-10
-1.01644e-09
-3.38813e-10
8.47033e-10
5.0822e-10
6.77626e-10
-8.47033e-10
-3.38813e-10
3.38813e-10
-8.47033e-10
1.69407e-10
6.77626e-10
0
8.47033e-10
-8.47033e-10
)
;

boundaryField
{
    topWall
    {
        type            calculated;
        value           nonuniform List<scalar> 
20
(
-1.69407e-09
-1.18585e-09
0
-6.77626e-10
3.38813e-10
-3.38813e-10
-1.01644e-09
-3.38813e-10
8.47033e-10
5.0822e-10
6.77626e-10
-8.47033e-10
-3.38813e-10
3.38813e-10
-8.47033e-10
1.69407e-10
6.77626e-10
0
8.47033e-10
-8.47033e-10
)
;
    }
    bottomWall
    {
        type            calculated;
        value           nonuniform List<scalar> 
20
(
-0.000372604
-0.00155578
-0.00455997
-0.0128262
-0.0355093
-0.0966768
-0.258123
-0.674561
-1.72403
-4.31032
-10.5576
-25.4137
-60.4475
-143.357
-343.995
-854.49
-2269.9
-6694.4
-22519.1
-86168.7
)
;
    }
    sideWallL
    {
        type            symmetry;
    }
    sideWallR
    {
        type            calculated;
        value           nonuniform List<scalar> 
45
(
-137371
-50433.3
-21710.8
-10214
-4977.13
-2433.07
-1172.45
-551.547
-251.902
-111.341
-47.542
-19.5922
-7.78946
-2.98782
-1.10596
-0.395234
-0.136444
-0.0455327
-0.0146986
-0.00459343
-0.00139074
-0.00040826
-0.000116294
-3.21694e-05
-8.64873e-06
-2.2635e-06
-5.76961e-07
-1.43245e-07
-3.46745e-08
-6.82121e-09
-4.54747e-09
-4.54747e-09
1.7053e-09
-2.84217e-09
-5.11591e-09
-1.7053e-09
-3.41061e-09
-3.97904e-09
0
0
-1.13687e-09
-5.68434e-10
0
1.7053e-09
-2.27374e-09
)
;
    }
    frontAndBack
    {
        type            empty;
    }
}


// ************************************************************************* //
