/*--------------------------------*- C++ -*----------------------------------*\
  =========                 |
  \\      /  F ield         | OpenFOAM: The Open Source CFD Toolbox
   \\    /   O peration     | Website:  https://openfoam.org
    \\  /    A nd           | Version:  7
     \\/     M anipulation  |
\*---------------------------------------------------------------------------*/
FoamFile
{
    version     2.0;
    format      ascii;
    class       volScalarField;
    location    "3";
    object      gradTy;
}
// * * * * * * * * * * * * * * * * * * * * * * * * * * * * * * * * * * * * * //

dimensions      [0 -1 0 1 0 0 0];

internalField   nonuniform List<scalar> 
900
(
-52607.7
-52607.7
-52607.7
-52607.7
-52607.7
-52607.8
-52608.1
-52608.8
-52610.6
-52615.1
-52626.3
-52653.4
-52717.5
-52867
-53211.9
-54007.9
-55868.6
-60354.1
-71759
-103049
-36381.7
-36381.7
-36381.7
-36381.8
-36381.8
-36381.9
-36382.1
-36382.6
-36383.8
-36387
-36394.7
-36412.7
-36453.4
-36542.2
-36728.4
-37096.1
-37748.2
-38609.9
-38326.4
-28915
-24205.4
-24205.4
-24205.4
-24205.4
-24205.4
-24205.4
-24205.5
-24205.7
-24206.3
-24207.5
-24210.2
-24215.7
-24225.8
-24240.8
-24251.6
-24211.2
-23945.5
-22899.7
-19502.1
-10054.8
-15456.4
-15456.4
-15456.4
-15456.4
-15456.4
-15456.4
-15456.4
-15456.4
-15456.2
-15455.7
-15454.1
-15449.4
-15436.2
-15400
-15304.1
-15058.5
-14454.4
-13042.6
-9985.63
-4183.43
-9455.58
-9455.58
-9455.58
-9455.57
-9455.56
-9455.53
-9455.45
-9455.23
-9454.62
-9453.05
-9449.04
-9439.08
-9415.03
-9358.64
-9230.59
-8950.58
-8365.86
-7217.8
-5156.44
-1945.24
-5534.75
-5534.75
-5534.75
-5534.74
-5534.73
-5534.69
-5534.58
-5534.28
-5533.53
-5531.64
-5527.03
-5516.17
-5491.43
-5437.12
-5322.71
-5092.82
-4656.57
-3886.92
-2656.67
-951.17
-3097.48
-3097.48
-3097.48
-3097.48
-3097.46
-3097.42
-3097.31
-3097.04
-3096.34
-3094.63
-3090.6
-3081.44
-3061.37
-3019.31
-2935.24
-2776.2
-2494.2
-2032.47
-1350.05
-470.38
-1656.86
-1656.86
-1656.86
-1656.85
-1656.84
-1656.81
-1656.72
-1656.5
-1655.96
-1654.66
-1651.68
-1645.07
-1631.06
-1602.74
-1548.43
-1450.35
-1285.1
-1028.98
-670.666
-230.136
-847.142
-847.142
-847.141
-847.137
-847.129
-847.105
-847.044
-846.892
-846.521
-845.651
-843.688
-839.447
-830.695
-813.525
-781.685
-726.264
-636.545
-503.105
-323.69
-110.051
-414.173
-414.172
-414.172
-414.169
-414.164
-414.149
-414.11
-414.014
-413.785
-413.256
-412.086
-409.607
-404.607
-395.045
-377.798
-348.666
-302.971
-237.134
-151.174
-51.0899
-193.741
-193.741
-193.741
-193.739
-193.736
-193.727
-193.704
-193.649
-193.519
-193.224
-192.58
-191.242
-188.595
-183.642
-174.914
-160.53
-138.536
-107.625
-68.1528
-22.9373
-86.779
-86.7789
-86.7786
-86.7779
-86.776
-86.7712
-86.7591
-86.7297
-86.6613
-86.5078
-86.1785
-85.5044
-84.1943
-81.7873
-77.6291
-70.916
-60.861
-47.0069
-29.6171
-9.93813
-37.252
-37.252
-37.2518
-37.2515
-37.2505
-37.248
-37.2419
-37.2273
-37.1937
-37.119
-36.961
-36.642
-36.0314
-34.9275
-33.0523
-30.0769
-25.6957
-19.755
-12.3985
-4.15109
-15.3411
-15.341
-15.341
-15.3408
-15.3403
-15.3392
-15.3363
-15.3294
-15.3138
-15.2797
-15.2081
-15.0655
-14.7962
-14.3161
-13.5124
-12.2556
-10.4313
-7.98985
-4.99916
-1.67088
-6.06712
-6.06711
-6.06707
-6.06699
-6.06678
-6.06625
-6.06497
-6.06195
-6.05511
-6.04029
-6.0096
-5.94914
-5.83628
-5.63758
-5.30908
-4.80182
-4.07431
-3.11119
-1.94184
-0.648146
-2.30672
-2.30672
-2.3067
-2.30667
-2.30658
-2.30635
-2.30581
-2.30454
-2.3017
-2.2956
-2.28308
-2.25867
-2.21359
-2.13507
-2.0067
-1.8106
-1.53223
-1.16707
-0.72695
-0.242378
-0.844041
-0.844039
-0.844033
-0.844019
-0.843982
-0.843891
-0.843672
-0.843167
-0.842042
-0.839645
-0.834774
-0.825364
-0.808151
-0.778462
-0.730386
-0.657639
-0.555278
-0.422039
-0.262442
-0.0874253
-0.297548
-0.297547
-0.297545
-0.29754
-0.297525
-0.29749
-0.297406
-0.297213
-0.296788
-0.295889
-0.294076
-0.290604
-0.284306
-0.273538
-0.256251
-0.230308
-0.194083
-0.147244
-0.0914336
-0.0304363
-0.101168
-0.101167
-0.101166
-0.101164
-0.101159
-0.101146
-0.101115
-0.101045
-0.100891
-0.100568
-0.0999211
-0.0986917
-0.0964795
-0.0927265
-0.0867473
-0.0778399
-0.0654855
-0.0496039
-0.0307653
-0.0102348
-0.0332102
-0.0332101
-0.0332098
-0.0332091
-0.0332072
-0.0332026
-0.0331917
-0.0331672
-0.0331137
-0.0330021
-0.0327805
-0.0323622
-0.0316147
-0.0303555
-0.0283633
-0.0254146
-0.0213492
-0.0161495
-0.0100058
-0.00332696
-0.0105365
-0.0105364
-0.0105363
-0.0105361
-0.0105354
-0.0105339
-0.0105302
-0.010522
-0.0105041
-0.0104671
-0.010394
-0.0102569
-0.0100135
-0.00960626
-0.00896585
-0.00802354
-0.00673119
-0.00508569
-0.00314812
-0.00104629
-0.00323405
-0.00323404
-0.003234
-0.00323392
-0.0032337
-0.00323319
-0.003232
-0.00322933
-0.00322358
-0.00321174
-0.0031885
-0.00314518
-0.00306874
-0.00294155
-0.00274269
-0.00245162
-0.00205433
-0.00155048
-0.000959013
-0.00031861
-0.000961267
-0.000961265
-0.000961255
-0.000961227
-0.000961158
-0.000960997
-0.000960624
-0.000959791
-0.000958007
-0.000954351
-0.000947218
-0.000933997
-0.000910795
-0.000872397
-0.000812673
-0.000725678
-0.000607437
-0.000458022
-0.0002831
-9.40227e-05
-0.000276949
-0.000276947
-0.000276944
-0.000276935
-0.000276915
-0.000276866
-0.000276753
-0.000276503
-0.000275968
-0.000274875
-0.000272759
-0.000268855
-0.000262043
-0.000250824
-0.000233457
-0.000208268
-0.000174167
-0.000131215
-8.10524e-05
-2.69114e-05
-7.74097e-05
-7.74105e-05
-7.74093e-05
-7.74063e-05
-7.74002e-05
-7.7387e-05
-7.73536e-05
-7.72797e-05
-7.71257e-05
-7.68117e-05
-7.62031e-05
-7.50868e-05
-7.31489e-05
-6.99731e-05
-6.50772e-05
-5.8006e-05
-4.84659e-05
-3.64849e-05
-2.25251e-05
-7.47642e-06
-2.10095e-05
-2.10095e-05
-2.101e-05
-2.10084e-05
-2.10079e-05
-2.1003e-05
-2.09941e-05
-2.09724e-05
-2.0929e-05
-2.08433e-05
-2.06735e-05
-2.03637e-05
-1.98289e-05
-1.89576e-05
-1.76174e-05
-1.56915e-05
-1.31004e-05
-9.85489e-06
-6.08136e-06
-2.0178e-06
-5.54231e-06
-5.54078e-06
-5.54078e-06
-5.54112e-06
-5.54027e-06
-5.53858e-06
-5.53705e-06
-5.53231e-06
-5.51944e-06
-5.49741e-06
-5.451e-06
-5.36799e-06
-5.22518e-06
-4.9919e-06
-4.63666e-06
-4.12674e-06
-3.44387e-06
-2.58921e-06
-1.597e-06
-5.30412e-07
-1.42217e-06
-1.42217e-06
-1.42132e-06
-1.42166e-06
-1.42081e-06
-1.42081e-06
-1.42081e-06
-1.41912e-06
-1.41624e-06
-1.40997e-06
-1.39862e-06
-1.37778e-06
-1.34001e-06
-1.27902e-06
-1.1872e-06
-1.0571e-06
-8.8227e-07
-6.62888e-07
-4.081e-07
-1.35525e-07
-3.57109e-07
-3.56093e-07
-3.55923e-07
-3.55246e-07
-3.55584e-07
-3.54907e-07
-3.5389e-07
-3.53721e-07
-3.54737e-07
-3.52705e-07
-3.50333e-07
-3.44742e-07
-3.35086e-07
-3.20348e-07
-2.9697e-07
-2.63935e-07
-2.20567e-07
-1.66188e-07
-1.01813e-07
-3.42201e-08
-8.82608e-08
-8.75832e-08
-8.63974e-08
-8.7075e-08
-8.84302e-08
-8.80914e-08
-8.52115e-08
-8.50421e-08
-8.75832e-08
-8.77526e-08
-8.58891e-08
-8.41951e-08
-8.18234e-08
-7.7927e-08
-7.2506e-08
-6.48827e-08
-5.45489e-08
-4.13352e-08
-2.57498e-08
-7.28448e-09
-1.93124e-08
-1.93124e-08
-2.06676e-08
-2.06676e-08
-2.18535e-08
-2.13452e-08
-2.15146e-08
-2.01594e-08
-1.94818e-08
-2.04982e-08
-2.04982e-08
-1.72795e-08
-2.01594e-08
-1.86347e-08
-1.79571e-08
-1.69407e-08
-1.35525e-08
-8.47033e-09
-5.75982e-09
-6.77626e-10
-3.21873e-09
-3.38813e-09
-4.91279e-09
-4.57398e-09
-3.72694e-09
-3.72694e-09
-5.42101e-09
-5.75982e-09
-1.52466e-09
-3.21873e-09
-3.72694e-09
-3.72694e-09
-5.2516e-09
-5.75982e-09
-5.92923e-09
-3.72694e-09
-2.87991e-09
-1.69407e-09
-8.47033e-10
-1.69407e-09
8.47033e-10
0
0
0
8.47033e-10
6.77626e-10
1.01644e-09
-1.69407e-10
0
-1.69407e-10
3.38813e-10
-2.87991e-09
-5.0822e-10
-1.69407e-09
-3.38813e-10
0
3.38813e-10
3.38813e-10
0
-1.69407e-10
6.77626e-10
8.47033e-10
8.47033e-10
1.69407e-09
2.37169e-09
8.47033e-10
1.18585e-09
1.69407e-10
-2.20229e-09
1.69407e-09
3.38813e-10
-3.38813e-10
8.47033e-10
5.0822e-10
1.52466e-09
-3.38813e-10
8.47033e-10
1.69407e-10
5.0822e-10
1.69407e-09
-3.38813e-10
0
0
0
0
-3.38813e-10
-1.35525e-09
-1.01644e-09
-3.38813e-10
5.0822e-10
-6.77626e-10
0
0
1.18585e-09
0
3.38813e-10
1.01644e-09
-1.69407e-10
8.47033e-10
-3.38813e-10
-6.77626e-10
-2.03288e-09
-2.87991e-09
-8.47033e-10
-1.18585e-09
-3.38813e-10
-8.47033e-10
8.47033e-10
0
-3.38813e-10
3.38813e-10
0
-8.47033e-10
-8.47033e-10
-1.69407e-09
8.47033e-10
3.38813e-10
0
3.38813e-10
-3.38813e-10
0
-8.47033e-10
-1.69407e-09
-5.0822e-10
-8.47033e-10
-1.69407e-10
8.47033e-10
-3.38813e-10
0
8.47033e-10
1.69407e-09
8.47033e-10
5.0822e-10
-1.35525e-09
-3.38813e-10
-3.38813e-10
0
-1.18585e-09
-1.18585e-09
3.38813e-10
1.52466e-09
5.0822e-10
2.5411e-09
0
-5.0822e-10
-1.18585e-09
1.35525e-09
5.0822e-10
3.38813e-10
-1.01644e-09
1.69407e-09
8.47033e-10
3.38813e-10
0
1.69407e-09
3.38813e-10
8.47033e-10
1.35525e-09
-1.69407e-10
-5.0822e-10
-8.47033e-10
8.47033e-10
1.18585e-09
5.0822e-10
2.5411e-09
2.20229e-09
0
0
-1.18585e-09
-3.38813e-10
3.38813e-10
1.52466e-09
0
1.01644e-09
3.38813e-10
-3.38813e-10
5.0822e-10
-8.47033e-10
1.69407e-10
-1.18585e-09
-2.37169e-09
3.38813e-10
3.38813e-10
2.03288e-09
2.03288e-09
2.03288e-09
-3.38813e-10
-1.35525e-09
-3.38813e-10
-3.38813e-10
-1.69407e-09
-6.77626e-10
3.38813e-10
8.47033e-10
0
-3.38813e-10
-5.0822e-10
-1.35525e-09
3.38813e-10
3.38813e-10
-1.01644e-09
-1.18585e-09
-3.38813e-10
-3.38813e-10
-1.69407e-09
-1.69407e-09
-1.69407e-10
8.47033e-10
1.18585e-09
3.38813e-10
-2.03288e-09
-8.47033e-10
-6.77626e-10
-1.35525e-09
-1.52466e-09
6.77626e-10
-8.47033e-10
3.38813e-10
3.38813e-10
0
1.86347e-09
0
-5.0822e-10
-1.69407e-09
0
-5.0822e-10
-8.47033e-10
0
8.47033e-10
8.47033e-10
-3.38813e-10
-5.0822e-10
-1.69407e-10
-8.47033e-10
-1.69407e-10
-6.77626e-10
-3.38813e-10
-6.77626e-10
-3.38813e-10
0
2.87991e-09
2.71051e-09
2.20229e-09
3.38813e-10
0
1.35525e-09
0
-1.69407e-09
6.77626e-10
0
8.47033e-10
3.38813e-10
8.47033e-10
1.35525e-09
1.01644e-09
-8.47033e-10
-5.0822e-10
-5.0822e-10
-1.18585e-09
-8.47033e-10
1.69407e-09
1.69407e-10
5.0822e-10
-6.77626e-10
-1.18585e-09
-3.38813e-10
1.69407e-10
-5.0822e-10
-1.52466e-09
-3.38813e-10
-5.0822e-10
0
-8.47033e-10
3.38813e-10
-8.47033e-10
-5.0822e-10
0
5.0822e-10
0
5.0822e-10
6.77626e-10
-1.01644e-09
-1.69407e-09
-1.69407e-10
-6.77626e-10
-1.86347e-09
-5.0822e-10
5.0822e-10
-1.18585e-09
-1.69407e-10
-5.0822e-10
-8.47033e-10
-1.18585e-09
-8.47033e-10
-5.0822e-10
-5.0822e-10
0
8.47033e-10
6.77626e-10
1.18585e-09
)
;

boundaryField
{
    topWall
    {
        type            calculated;
        value           uniform 0;
    }
    bottomWall
    {
        type            calculated;
        value           nonuniform List<scalar> 
20
(
-61805.1
-61805.1
-61805.2
-61805.2
-61805.2
-61805.3
-61805.6
-61806.3
-61808.3
-61813.2
-61825.5
-61855.5
-61927.2
-62097.3
-62500.6
-63473.2
-65918.6
-72552.8
-92696.2
-162629
)
;
    }
    sideWallL
    {
        type            symmetry;
    }
    sideWallR
    {
        type            calculated;
        value           nonuniform List<scalar> 
45
(
-103049
-28915
-10054.8
-4183.43
-1945.24
-951.17
-470.38
-230.136
-110.051
-51.0899
-22.9373
-9.93813
-4.15109
-1.67088
-0.648146
-0.242378
-0.0874253
-0.0304363
-0.0102348
-0.00332696
-0.00104629
-0.00031861
-9.40227e-05
-2.69114e-05
-7.47642e-06
-2.0178e-06
-5.30412e-07
-1.35525e-07
-3.42201e-08
-7.28448e-09
-6.77626e-10
-1.69407e-09
-1.69407e-10
1.69407e-09
-3.38813e-10
-3.38813e-10
3.38813e-10
-5.0822e-10
-1.18585e-09
3.38813e-10
0
0
-8.47033e-10
5.0822e-10
1.18585e-09
)
;
    }
    frontAndBack
    {
        type            empty;
    }
}


// ************************************************************************* //
