/*--------------------------------*- C++ -*----------------------------------*\
  =========                 |
  \\      /  F ield         | OpenFOAM: The Open Source CFD Toolbox
   \\    /   O peration     | Website:  https://openfoam.org
    \\  /    A nd           | Version:  7
     \\/     M anipulation  |
\*---------------------------------------------------------------------------*/
FoamFile
{
    version     2.0;
    format      ascii;
    class       volScalarField;
    location    "3";
    object      rhoc;
}
// * * * * * * * * * * * * * * * * * * * * * * * * * * * * * * * * * * * * * //

dimensions      [1 -3 0 0 0 0 0];

internalField   nonuniform List<scalar> 
900
(
6.82109e-29
6.82109e-29
6.82109e-29
6.82109e-29
6.82109e-29
6.82108e-29
6.82105e-29
6.82098e-29
6.82079e-29
6.82026e-29
6.81887e-29
6.81524e-29
6.80599e-29
6.78262e-29
6.72385e-29
6.57527e-29
6.19501e-29
5.22678e-29
3.06325e-29
4.83028e-30
4.90537e-30
4.90537e-30
4.90537e-30
4.90537e-30
4.90537e-30
4.90535e-30
4.90531e-30
4.90519e-30
4.90486e-30
4.90398e-30
4.90165e-30
4.89565e-30
4.88052e-30
4.84319e-30
4.75316e-30
4.54274e-30
4.07703e-30
3.1597e-30
1.76819e-30
5.40229e-31
1.01944e-30
1.01944e-30
1.01944e-30
1.01944e-30
1.01944e-30
1.01944e-30
1.01943e-30
1.0194e-30
1.01933e-30
1.01914e-30
1.01863e-30
1.01734e-30
1.01416e-30
1.00651e-30
9.88808e-31
9.49731e-31
8.69646e-31
7.24866e-31
5.13728e-31
2.94926e-31
4.46573e-31
4.46573e-31
4.46572e-31
4.46572e-31
4.46572e-31
4.46571e-31
4.46567e-31
4.46558e-31
4.46533e-31
4.46466e-31
4.46294e-31
4.45865e-31
4.44828e-31
4.42412e-31
4.37024e-31
4.2565e-31
4.03415e-31
3.6457e-31
3.07099e-31
2.39957e-31
2.98231e-31
2.98231e-31
2.98231e-31
2.98231e-31
2.98231e-31
2.9823e-31
2.98229e-31
2.98224e-31
2.98213e-31
2.98182e-31
2.98104e-31
2.97915e-31
2.97468e-31
2.9646e-31
2.9429e-31
2.89887e-31
2.81612e-31
2.6757e-31
2.46824e-31
2.21404e-31
2.46088e-31
2.46088e-31
2.46088e-31
2.46088e-31
2.46088e-31
2.46087e-31
2.46086e-31
2.46084e-31
2.46078e-31
2.46062e-31
2.46022e-31
2.45926e-31
2.45706e-31
2.45226e-31
2.44226e-31
2.42272e-31
2.38736e-31
2.32924e-31
2.2449e-31
2.14077e-31
2.24866e-31
2.24866e-31
2.24866e-31
2.24866e-31
2.24866e-31
2.24866e-31
2.24865e-31
2.24864e-31
2.2486e-31
2.24851e-31
2.2483e-31
2.2478e-31
2.24667e-31
2.24428e-31
2.23947e-31
2.23039e-31
2.21454e-31
2.18933e-31
2.15366e-31
2.11005e-31
2.15704e-31
2.15704e-31
2.15704e-31
2.15704e-31
2.15704e-31
2.15703e-31
2.15703e-31
2.15702e-31
2.157e-31
2.15696e-31
2.15684e-31
2.15658e-31
2.15601e-31
2.15483e-31
2.15253e-31
2.14832e-31
2.14121e-31
2.13025e-31
2.11515e-31
2.09697e-31
2.11699e-31
2.11699e-31
2.11699e-31
2.11699e-31
2.11699e-31
2.11699e-31
2.11699e-31
2.11699e-31
2.11698e-31
2.11695e-31
2.11689e-31
2.11676e-31
2.11648e-31
2.11592e-31
2.11485e-31
2.11295e-31
2.10983e-31
2.10516e-31
2.09888e-31
2.09144e-31
2.09971e-31
2.09971e-31
2.09971e-31
2.09971e-31
2.09971e-31
2.09971e-31
2.09971e-31
2.09971e-31
2.0997e-31
2.09969e-31
2.09966e-31
2.0996e-31
2.09947e-31
2.09921e-31
2.09873e-31
2.09791e-31
2.09658e-31
2.09465e-31
2.09211e-31
2.08914e-31
2.09244e-31
2.09244e-31
2.09244e-31
2.09244e-31
2.09244e-31
2.09244e-31
2.09244e-31
2.09244e-31
2.09244e-31
2.09243e-31
2.09242e-31
2.09239e-31
2.09233e-31
2.09222e-31
2.09202e-31
2.09167e-31
2.09113e-31
2.09036e-31
2.08936e-31
2.08821e-31
2.08948e-31
2.08948e-31
2.08948e-31
2.08948e-31
2.08948e-31
2.08948e-31
2.08948e-31
2.08948e-31
2.08948e-31
2.08948e-31
2.08947e-31
2.08946e-31
2.08943e-31
2.08939e-31
2.0893e-31
2.08916e-31
2.08895e-31
2.08865e-31
2.08827e-31
2.08784e-31
2.08831e-31
2.08831e-31
2.08831e-31
2.08831e-31
2.08831e-31
2.08831e-31
2.08831e-31
2.08831e-31
2.08831e-31
2.08831e-31
2.08831e-31
2.0883e-31
2.08829e-31
2.08828e-31
2.08824e-31
2.08819e-31
2.08811e-31
2.088e-31
2.08786e-31
2.0877e-31
2.08787e-31
2.08787e-31
2.08787e-31
2.08787e-31
2.08787e-31
2.08787e-31
2.08787e-31
2.08787e-31
2.08787e-31
2.08787e-31
2.08787e-31
2.08787e-31
2.08786e-31
2.08786e-31
2.08784e-31
2.08782e-31
2.0878e-31
2.08776e-31
2.08771e-31
2.08765e-31
2.08771e-31
2.08771e-31
2.08771e-31
2.08771e-31
2.08771e-31
2.08771e-31
2.08771e-31
2.08771e-31
2.08771e-31
2.08771e-31
2.08771e-31
2.08771e-31
2.08771e-31
2.0877e-31
2.0877e-31
2.08769e-31
2.08768e-31
2.08767e-31
2.08765e-31
2.08763e-31
2.08765e-31
2.08765e-31
2.08765e-31
2.08765e-31
2.08765e-31
2.08765e-31
2.08765e-31
2.08765e-31
2.08765e-31
2.08765e-31
2.08765e-31
2.08765e-31
2.08765e-31
2.08765e-31
2.08765e-31
2.08765e-31
2.08764e-31
2.08764e-31
2.08763e-31
2.08762e-31
2.08763e-31
2.08763e-31
2.08763e-31
2.08763e-31
2.08763e-31
2.08763e-31
2.08763e-31
2.08763e-31
2.08763e-31
2.08763e-31
2.08763e-31
2.08763e-31
2.08763e-31
2.08763e-31
2.08763e-31
2.08763e-31
2.08763e-31
2.08763e-31
2.08762e-31
2.08762e-31
2.08762e-31
2.08762e-31
2.08762e-31
2.08762e-31
2.08762e-31
2.08762e-31
2.08762e-31
2.08762e-31
2.08762e-31
2.08762e-31
2.08762e-31
2.08762e-31
2.08762e-31
2.08762e-31
2.08762e-31
2.08762e-31
2.08762e-31
2.08762e-31
2.08762e-31
2.08762e-31
2.08762e-31
2.08762e-31
2.08762e-31
2.08762e-31
2.08762e-31
2.08762e-31
2.08762e-31
2.08762e-31
2.08762e-31
2.08762e-31
2.08762e-31
2.08762e-31
2.08762e-31
2.08762e-31
2.08762e-31
2.08762e-31
2.08762e-31
2.08762e-31
2.08762e-31
2.08762e-31
2.08762e-31
2.08762e-31
2.08762e-31
2.08762e-31
2.08762e-31
2.08762e-31
2.08762e-31
2.08762e-31
2.08762e-31
2.08762e-31
2.08762e-31
2.08762e-31
2.08762e-31
2.08762e-31
2.08762e-31
2.08762e-31
2.08762e-31
2.08762e-31
2.08762e-31
2.08762e-31
2.08762e-31
2.08762e-31
2.08762e-31
2.08762e-31
2.08762e-31
2.08762e-31
2.08762e-31
2.08762e-31
2.08762e-31
2.08762e-31
2.08762e-31
2.08762e-31
2.08762e-31
2.08762e-31
2.08762e-31
2.08762e-31
2.08762e-31
2.08762e-31
2.08762e-31
2.08762e-31
2.08762e-31
2.08762e-31
2.08762e-31
2.08762e-31
2.08762e-31
2.08762e-31
2.08762e-31
2.08762e-31
2.08762e-31
2.08762e-31
2.08762e-31
2.08762e-31
2.08762e-31
2.08762e-31
2.08762e-31
2.08762e-31
2.08762e-31
2.08762e-31
2.08762e-31
2.08762e-31
2.08762e-31
2.08762e-31
2.08762e-31
2.08762e-31
2.08762e-31
2.08762e-31
2.08762e-31
2.08762e-31
2.08762e-31
2.08762e-31
2.08762e-31
2.08762e-31
2.08762e-31
2.08762e-31
2.08762e-31
2.08762e-31
2.08762e-31
2.08762e-31
2.08762e-31
2.08762e-31
2.08762e-31
2.08762e-31
2.08762e-31
2.08762e-31
2.08762e-31
2.08762e-31
2.08762e-31
2.08762e-31
2.08762e-31
2.08762e-31
2.08762e-31
2.08762e-31
2.08762e-31
2.08762e-31
2.08762e-31
2.08762e-31
2.08762e-31
2.08762e-31
2.08762e-31
2.08762e-31
2.08762e-31
2.08762e-31
2.08762e-31
2.08762e-31
2.08762e-31
2.08762e-31
2.08762e-31
2.08762e-31
2.08762e-31
2.08762e-31
2.08762e-31
2.08762e-31
2.08762e-31
2.08762e-31
2.08762e-31
2.08762e-31
2.08762e-31
2.08762e-31
2.08762e-31
2.08762e-31
2.08762e-31
2.08762e-31
2.08762e-31
2.08762e-31
2.08762e-31
2.08762e-31
2.08762e-31
2.08762e-31
2.08762e-31
2.08762e-31
2.08762e-31
2.08762e-31
2.08762e-31
2.08762e-31
2.08762e-31
2.08762e-31
2.08762e-31
2.08762e-31
2.08762e-31
2.08762e-31
2.08762e-31
2.08762e-31
2.08762e-31
2.08762e-31
2.08762e-31
2.08762e-31
2.08762e-31
2.08762e-31
2.08762e-31
2.08762e-31
2.08762e-31
2.08762e-31
2.08762e-31
2.08762e-31
2.08762e-31
2.08762e-31
2.08762e-31
2.08762e-31
2.08762e-31
2.08762e-31
2.08762e-31
2.08762e-31
2.08762e-31
2.08762e-31
2.08762e-31
2.08762e-31
2.08762e-31
2.08762e-31
2.08762e-31
2.08762e-31
2.08762e-31
2.08762e-31
2.08762e-31
2.08762e-31
2.08762e-31
2.08762e-31
2.08762e-31
2.08762e-31
2.08762e-31
2.08762e-31
2.08762e-31
2.08762e-31
2.08762e-31
2.08762e-31
2.08762e-31
2.08762e-31
2.08762e-31
2.08762e-31
2.08762e-31
2.08762e-31
2.08762e-31
2.08762e-31
2.08762e-31
2.08762e-31
2.08762e-31
2.08762e-31
2.08762e-31
2.08762e-31
2.08762e-31
2.08762e-31
2.08762e-31
2.08762e-31
2.08762e-31
2.08762e-31
2.08762e-31
2.08762e-31
2.08762e-31
2.08762e-31
2.08762e-31
2.08762e-31
2.08762e-31
2.08762e-31
2.08762e-31
2.08762e-31
2.08762e-31
2.08762e-31
2.08762e-31
2.08762e-31
2.08762e-31
2.08762e-31
2.08762e-31
2.08762e-31
2.08762e-31
2.08762e-31
2.08762e-31
2.08762e-31
2.08762e-31
2.08762e-31
2.08762e-31
2.08762e-31
2.08762e-31
2.08762e-31
2.08762e-31
2.08762e-31
2.08762e-31
2.08762e-31
2.08762e-31
2.08762e-31
2.08762e-31
2.08762e-31
2.08762e-31
2.08762e-31
2.08762e-31
2.08762e-31
2.08762e-31
2.08762e-31
2.08762e-31
2.08762e-31
2.08762e-31
2.08762e-31
2.08762e-31
2.08762e-31
2.08762e-31
2.08762e-31
2.08762e-31
2.08762e-31
2.08762e-31
2.08762e-31
2.08762e-31
2.08762e-31
2.08762e-31
2.08762e-31
2.08762e-31
2.08762e-31
2.08762e-31
2.08762e-31
2.08762e-31
2.08762e-31
2.08762e-31
2.08762e-31
2.08762e-31
2.08762e-31
2.08762e-31
2.08762e-31
2.08762e-31
2.08762e-31
2.08762e-31
2.08762e-31
2.08762e-31
2.08762e-31
2.08762e-31
2.08762e-31
2.08762e-31
2.08762e-31
2.08762e-31
2.08762e-31
2.08762e-31
2.08762e-31
2.08762e-31
2.08762e-31
2.08762e-31
2.08762e-31
2.08762e-31
2.08762e-31
2.08762e-31
2.08762e-31
2.08762e-31
2.08762e-31
2.08762e-31
2.08762e-31
2.08762e-31
2.08762e-31
2.08762e-31
2.08762e-31
2.08762e-31
2.08762e-31
2.08762e-31
2.08762e-31
2.08762e-31
2.08762e-31
2.08762e-31
2.08762e-31
2.08762e-31
2.08762e-31
2.08762e-31
2.08762e-31
2.08762e-31
2.08762e-31
2.08762e-31
2.08762e-31
2.08762e-31
2.08762e-31
2.08762e-31
2.08762e-31
2.08762e-31
2.08762e-31
2.08762e-31
2.08762e-31
2.08762e-31
2.08762e-31
2.08762e-31
2.08762e-31
2.08762e-31
2.08762e-31
2.08762e-31
2.08762e-31
2.08762e-31
2.08762e-31
2.08762e-31
2.08762e-31
2.08762e-31
2.08762e-31
2.08762e-31
2.08762e-31
2.08762e-31
2.08762e-31
2.08762e-31
2.08762e-31
2.08762e-31
2.08762e-31
2.08762e-31
2.08762e-31
2.08762e-31
2.08762e-31
2.08762e-31
2.08762e-31
2.08762e-31
2.08762e-31
2.08762e-31
2.08762e-31
2.08762e-31
2.08762e-31
2.08762e-31
2.08762e-31
2.08762e-31
2.08762e-31
2.08762e-31
2.08762e-31
2.08762e-31
2.08762e-31
2.08762e-31
2.08762e-31
2.08762e-31
2.08762e-31
2.08762e-31
2.08762e-31
2.08762e-31
2.08762e-31
2.08762e-31
2.08762e-31
2.08762e-31
2.08762e-31
2.08762e-31
2.08762e-31
2.08762e-31
2.08762e-31
2.08762e-31
2.08762e-31
2.08762e-31
2.08762e-31
2.08762e-31
2.08762e-31
2.08762e-31
2.08762e-31
2.08762e-31
2.08762e-31
2.08762e-31
2.08762e-31
2.08762e-31
2.08762e-31
2.08762e-31
2.08762e-31
2.08762e-31
2.08762e-31
2.08762e-31
2.08762e-31
2.08762e-31
2.08762e-31
2.08762e-31
2.08762e-31
2.08762e-31
2.08762e-31
2.08762e-31
2.08762e-31
2.08762e-31
2.08762e-31
2.08762e-31
2.08762e-31
2.08762e-31
2.08762e-31
2.08762e-31
2.08762e-31
2.08762e-31
2.08762e-31
2.08762e-31
2.08762e-31
2.08762e-31
2.08762e-31
2.08762e-31
2.08762e-31
2.08762e-31
2.08762e-31
2.08762e-31
2.08762e-31
2.08762e-31
2.08762e-31
2.08762e-31
2.08762e-31
2.08762e-31
2.08762e-31
2.08762e-31
2.08762e-31
2.08762e-31
2.08762e-31
2.08762e-31
2.08762e-31
2.08762e-31
2.08762e-31
2.08762e-31
2.08762e-31
2.08762e-31
2.08762e-31
2.08762e-31
2.08762e-31
2.08762e-31
2.08762e-31
2.08762e-31
2.08762e-31
2.08762e-31
2.08762e-31
2.08762e-31
2.08762e-31
2.08762e-31
2.08762e-31
2.08762e-31
2.08762e-31
2.08762e-31
2.08762e-31
2.08762e-31
2.08762e-31
2.08762e-31
2.08762e-31
2.08762e-31
2.08762e-31
2.08762e-31
2.08762e-31
2.08762e-31
2.08762e-31
2.08762e-31
2.08762e-31
2.08762e-31
2.08762e-31
2.08762e-31
2.08762e-31
2.08762e-31
2.08762e-31
2.08762e-31
2.08762e-31
2.08762e-31
2.08762e-31
2.08762e-31
2.08762e-31
2.08762e-31
2.08762e-31
2.08762e-31
2.08762e-31
2.08762e-31
2.08762e-31
2.08762e-31
2.08762e-31
2.08762e-31
2.08762e-31
2.08762e-31
2.08762e-31
2.08762e-31
2.08762e-31
2.08762e-31
2.08762e-31
2.08762e-31
2.08762e-31
2.08762e-31
2.08762e-31
2.08762e-31
2.08762e-31
2.08762e-31
2.08762e-31
2.08762e-31
2.08762e-31
2.08762e-31
2.08762e-31
)
;

boundaryField
{
    topWall
    {
        type            zeroGradient;
    }
    bottomWall
    {
        type            zeroGradient;
    }
    sideWallL
    {
        type            symmetry;
    }
    sideWallR
    {
        type            zeroGradient;
    }
    frontAndBack
    {
        type            empty;
    }
}


// ************************************************************************* //
