/*--------------------------------*- C++ -*----------------------------------*\
  =========                 |
  \\      /  F ield         | OpenFOAM: The Open Source CFD Toolbox
   \\    /   O peration     | Website:  https://openfoam.org
    \\  /    A nd           | Version:  7
     \\/     M anipulation  |
\*---------------------------------------------------------------------------*/
FoamFile
{
    version     2.0;
    format      ascii;
    class       volScalarField;
    location    "3";
    object      rhog;
}
// * * * * * * * * * * * * * * * * * * * * * * * * * * * * * * * * * * * * * //

dimensions      [1 -3 0 0 0 0 0];

internalField   nonuniform List<scalar> 
900
(
3.07229e-15
3.07229e-15
3.07229e-15
3.07229e-15
3.07229e-15
3.07228e-15
3.07228e-15
3.07225e-15
3.0722e-15
3.07204e-15
3.07162e-15
3.07054e-15
3.06781e-15
3.06097e-15
3.04389e-15
3.00086e-15
2.89005e-15
2.59794e-15
1.86099e-15
5.84436e-16
6.10531e-16
6.10531e-16
6.10531e-16
6.10531e-16
6.1053e-16
6.10529e-16
6.10525e-16
6.10515e-16
6.10487e-16
6.10411e-16
6.10212e-16
6.09704e-16
6.08433e-16
6.05318e-16
5.97845e-16
5.80341e-16
5.40885e-16
4.58659e-16
3.15368e-16
1.46668e-16
2.26013e-16
2.26013e-16
2.26013e-16
2.26013e-16
2.26013e-16
2.26012e-16
2.26011e-16
2.26006e-16
2.25995e-16
2.25964e-16
2.25885e-16
2.25685e-16
2.25194e-16
2.24023e-16
2.21326e-16
2.1537e-16
2.03013e-16
1.79844e-16
1.4327e-16
9.97098e-17
1.32058e-16
1.32058e-16
1.32058e-16
1.32058e-16
1.32058e-16
1.32058e-16
1.32057e-16
1.32055e-16
1.32049e-16
1.32035e-16
1.31999e-16
1.31909e-16
1.31694e-16
1.31196e-16
1.3009e-16
1.27762e-16
1.23194e-16
1.15091e-16
1.02695e-16
8.73762e-17
1.01145e-16
1.01145e-16
1.01145e-16
1.01145e-16
1.01145e-16
1.01145e-16
1.01144e-16
1.01143e-16
1.0114e-16
1.01133e-16
1.01114e-16
1.01069e-16
1.00964e-16
1.00727e-16
1.0022e-16
9.91954e-17
9.72713e-17
9.39932e-17
8.90946e-17
8.2969e-17
8.9053e-17
8.9053e-17
8.9053e-17
8.9053e-17
8.9053e-17
8.90529e-17
8.90527e-17
8.9052e-17
8.90505e-17
8.90464e-17
8.90364e-17
8.90125e-17
8.89579e-17
8.88389e-17
8.85925e-17
8.81127e-17
8.72466e-17
8.58241e-17
8.37544e-17
8.11831e-17
8.3892e-17
8.3892e-17
8.3892e-17
8.3892e-17
8.3892e-17
8.3892e-17
8.38918e-17
8.38915e-17
8.38906e-17
8.38883e-17
8.38828e-17
8.387e-17
8.38415e-17
8.37811e-17
8.36599e-17
8.34319e-17
8.30349e-17
8.24049e-17
8.15141e-17
8.04237e-17
8.16142e-17
8.16142e-17
8.16142e-17
8.16142e-17
8.16142e-17
8.16141e-17
8.16141e-17
8.16139e-17
8.16134e-17
8.16121e-17
8.16092e-17
8.16025e-17
8.15879e-17
8.15578e-17
8.14992e-17
8.13924e-17
8.12125e-17
8.09359e-17
8.05553e-17
8.00973e-17
8.06074e-17
8.06074e-17
8.06074e-17
8.06074e-17
8.06074e-17
8.06074e-17
8.06073e-17
8.06072e-17
8.0607e-17
8.06063e-17
8.06048e-17
8.06014e-17
8.05943e-17
8.05798e-17
8.05524e-17
8.0504e-17
8.04246e-17
8.0306e-17
8.01468e-17
7.99584e-17
8.017e-17
8.017e-17
8.017e-17
8.017e-17
8.017e-17
8.017e-17
8.017e-17
8.01699e-17
8.01698e-17
8.01695e-17
8.01687e-17
8.01671e-17
8.01637e-17
8.01571e-17
8.01449e-17
8.01237e-17
8.00899e-17
8.00406e-17
7.99759e-17
7.99003e-17
7.99851e-17
7.99851e-17
7.99851e-17
7.99851e-17
7.99851e-17
7.99851e-17
7.99851e-17
7.99851e-17
7.9985e-17
7.99849e-17
7.99845e-17
7.99838e-17
7.99823e-17
7.99794e-17
7.99741e-17
7.99653e-17
7.99514e-17
7.99317e-17
7.99062e-17
7.98768e-17
7.99095e-17
7.99095e-17
7.99095e-17
7.99095e-17
7.99095e-17
7.99095e-17
7.99095e-17
7.99095e-17
7.99094e-17
7.99094e-17
7.99092e-17
7.99089e-17
7.99083e-17
7.99071e-17
7.99049e-17
7.99013e-17
7.98959e-17
7.98882e-17
7.98785e-17
7.98674e-17
7.98796e-17
7.98796e-17
7.98796e-17
7.98796e-17
7.98796e-17
7.98796e-17
7.98796e-17
7.98796e-17
7.98796e-17
7.98796e-17
7.98795e-17
7.98794e-17
7.98791e-17
7.98786e-17
7.98778e-17
7.98764e-17
7.98744e-17
7.98715e-17
7.98679e-17
7.98639e-17
7.98682e-17
7.98682e-17
7.98682e-17
7.98682e-17
7.98682e-17
7.98682e-17
7.98682e-17
7.98682e-17
7.98682e-17
7.98682e-17
7.98682e-17
7.98681e-17
7.9868e-17
7.98679e-17
7.98675e-17
7.9867e-17
7.98663e-17
7.98653e-17
7.9864e-17
7.98625e-17
7.98641e-17
7.98641e-17
7.98641e-17
7.98641e-17
7.98641e-17
7.98641e-17
7.98641e-17
7.98641e-17
7.98641e-17
7.98641e-17
7.9864e-17
7.9864e-17
7.9864e-17
7.98639e-17
7.98638e-17
7.98636e-17
7.98634e-17
7.9863e-17
7.98626e-17
7.98621e-17
7.98626e-17
7.98626e-17
7.98626e-17
7.98626e-17
7.98626e-17
7.98626e-17
7.98626e-17
7.98626e-17
7.98626e-17
7.98626e-17
7.98626e-17
7.98626e-17
7.98625e-17
7.98625e-17
7.98625e-17
7.98624e-17
7.98623e-17
7.98622e-17
7.98621e-17
7.98619e-17
7.98621e-17
7.98621e-17
7.98621e-17
7.98621e-17
7.98621e-17
7.98621e-17
7.98621e-17
7.98621e-17
7.98621e-17
7.98621e-17
7.98621e-17
7.98621e-17
7.98621e-17
7.9862e-17
7.9862e-17
7.9862e-17
7.9862e-17
7.98619e-17
7.98619e-17
7.98618e-17
7.98619e-17
7.98619e-17
7.98619e-17
7.98619e-17
7.98619e-17
7.98619e-17
7.98619e-17
7.98619e-17
7.98619e-17
7.98619e-17
7.98619e-17
7.98619e-17
7.98619e-17
7.98619e-17
7.98619e-17
7.98619e-17
7.98619e-17
7.98619e-17
7.98618e-17
7.98618e-17
7.98618e-17
7.98618e-17
7.98618e-17
7.98618e-17
7.98618e-17
7.98618e-17
7.98618e-17
7.98618e-17
7.98618e-17
7.98618e-17
7.98618e-17
7.98618e-17
7.98618e-17
7.98618e-17
7.98618e-17
7.98618e-17
7.98618e-17
7.98618e-17
7.98618e-17
7.98618e-17
7.98618e-17
7.98618e-17
7.98618e-17
7.98618e-17
7.98618e-17
7.98618e-17
7.98618e-17
7.98618e-17
7.98618e-17
7.98618e-17
7.98618e-17
7.98618e-17
7.98618e-17
7.98618e-17
7.98618e-17
7.98618e-17
7.98618e-17
7.98618e-17
7.98618e-17
7.98618e-17
7.98618e-17
7.98618e-17
7.98618e-17
7.98618e-17
7.98618e-17
7.98618e-17
7.98618e-17
7.98618e-17
7.98618e-17
7.98618e-17
7.98618e-17
7.98618e-17
7.98618e-17
7.98618e-17
7.98618e-17
7.98618e-17
7.98618e-17
7.98618e-17
7.98618e-17
7.98618e-17
7.98618e-17
7.98618e-17
7.98618e-17
7.98618e-17
7.98618e-17
7.98618e-17
7.98618e-17
7.98618e-17
7.98618e-17
7.98618e-17
7.98618e-17
7.98618e-17
7.98618e-17
7.98618e-17
7.98618e-17
7.98618e-17
7.98618e-17
7.98618e-17
7.98618e-17
7.98618e-17
7.98618e-17
7.98618e-17
7.98618e-17
7.98618e-17
7.98618e-17
7.98618e-17
7.98618e-17
7.98618e-17
7.98618e-17
7.98618e-17
7.98618e-17
7.98618e-17
7.98618e-17
7.98618e-17
7.98618e-17
7.98618e-17
7.98618e-17
7.98618e-17
7.98618e-17
7.98618e-17
7.98618e-17
7.98618e-17
7.98618e-17
7.98618e-17
7.98618e-17
7.98618e-17
7.98618e-17
7.98618e-17
7.98618e-17
7.98618e-17
7.98618e-17
7.98618e-17
7.98618e-17
7.98618e-17
7.98618e-17
7.98618e-17
7.98618e-17
7.98618e-17
7.98618e-17
7.98618e-17
7.98618e-17
7.98618e-17
7.98618e-17
7.98618e-17
7.98618e-17
7.98618e-17
7.98618e-17
7.98618e-17
7.98618e-17
7.98618e-17
7.98618e-17
7.98618e-17
7.98618e-17
7.98618e-17
7.98618e-17
7.98618e-17
7.98618e-17
7.98618e-17
7.98618e-17
7.98618e-17
7.98618e-17
7.98618e-17
7.98618e-17
7.98618e-17
7.98618e-17
7.98618e-17
7.98618e-17
7.98618e-17
7.98618e-17
7.98618e-17
7.98618e-17
7.98618e-17
7.98618e-17
7.98618e-17
7.98618e-17
7.98618e-17
7.98618e-17
7.98618e-17
7.98618e-17
7.98618e-17
7.98618e-17
7.98618e-17
7.98618e-17
7.98618e-17
7.98618e-17
7.98618e-17
7.98618e-17
7.98618e-17
7.98618e-17
7.98618e-17
7.98618e-17
7.98618e-17
7.98618e-17
7.98618e-17
7.98618e-17
7.98618e-17
7.98618e-17
7.98618e-17
7.98618e-17
7.98618e-17
7.98618e-17
7.98618e-17
7.98618e-17
7.98618e-17
7.98618e-17
7.98618e-17
7.98618e-17
7.98618e-17
7.98618e-17
7.98618e-17
7.98618e-17
7.98618e-17
7.98618e-17
7.98618e-17
7.98618e-17
7.98618e-17
7.98618e-17
7.98618e-17
7.98618e-17
7.98618e-17
7.98618e-17
7.98618e-17
7.98618e-17
7.98618e-17
7.98618e-17
7.98618e-17
7.98618e-17
7.98618e-17
7.98618e-17
7.98618e-17
7.98618e-17
7.98618e-17
7.98618e-17
7.98618e-17
7.98618e-17
7.98618e-17
7.98618e-17
7.98618e-17
7.98618e-17
7.98618e-17
7.98618e-17
7.98618e-17
7.98618e-17
7.98618e-17
7.98618e-17
7.98618e-17
7.98618e-17
7.98618e-17
7.98618e-17
7.98618e-17
7.98618e-17
7.98618e-17
7.98618e-17
7.98618e-17
7.98618e-17
7.98618e-17
7.98618e-17
7.98618e-17
7.98618e-17
7.98618e-17
7.98618e-17
7.98618e-17
7.98618e-17
7.98618e-17
7.98618e-17
7.98618e-17
7.98618e-17
7.98618e-17
7.98618e-17
7.98618e-17
7.98618e-17
7.98618e-17
7.98618e-17
7.98618e-17
7.98618e-17
7.98618e-17
7.98618e-17
7.98618e-17
7.98618e-17
7.98618e-17
7.98618e-17
7.98618e-17
7.98618e-17
7.98618e-17
7.98618e-17
7.98618e-17
7.98618e-17
7.98618e-17
7.98618e-17
7.98618e-17
7.98618e-17
7.98618e-17
7.98618e-17
7.98618e-17
7.98618e-17
7.98618e-17
7.98618e-17
7.98618e-17
7.98618e-17
7.98618e-17
7.98618e-17
7.98618e-17
7.98618e-17
7.98618e-17
7.98618e-17
7.98618e-17
7.98618e-17
7.98618e-17
7.98618e-17
7.98618e-17
7.98618e-17
7.98618e-17
7.98618e-17
7.98618e-17
7.98618e-17
7.98618e-17
7.98618e-17
7.98618e-17
7.98618e-17
7.98618e-17
7.98618e-17
7.98618e-17
7.98618e-17
7.98618e-17
7.98618e-17
7.98618e-17
7.98618e-17
7.98618e-17
7.98618e-17
7.98618e-17
7.98618e-17
7.98618e-17
7.98618e-17
7.98618e-17
7.98618e-17
7.98618e-17
7.98618e-17
7.98618e-17
7.98618e-17
7.98618e-17
7.98618e-17
7.98618e-17
7.98618e-17
7.98618e-17
7.98618e-17
7.98618e-17
7.98618e-17
7.98618e-17
7.98618e-17
7.98618e-17
7.98618e-17
7.98618e-17
7.98618e-17
7.98618e-17
7.98618e-17
7.98618e-17
7.98618e-17
7.98618e-17
7.98618e-17
7.98618e-17
7.98618e-17
7.98618e-17
7.98618e-17
7.98618e-17
7.98618e-17
7.98618e-17
7.98618e-17
7.98618e-17
7.98618e-17
7.98618e-17
7.98618e-17
7.98618e-17
7.98618e-17
7.98618e-17
7.98618e-17
7.98618e-17
7.98618e-17
7.98618e-17
7.98618e-17
7.98618e-17
7.98618e-17
7.98618e-17
7.98618e-17
7.98618e-17
7.98618e-17
7.98618e-17
7.98618e-17
7.98618e-17
7.98618e-17
7.98618e-17
7.98618e-17
7.98618e-17
7.98618e-17
7.98618e-17
7.98618e-17
7.98618e-17
7.98618e-17
7.98618e-17
7.98618e-17
7.98618e-17
7.98618e-17
7.98618e-17
7.98618e-17
7.98618e-17
7.98618e-17
7.98618e-17
7.98618e-17
7.98618e-17
7.98618e-17
7.98618e-17
7.98618e-17
7.98618e-17
7.98618e-17
7.98618e-17
7.98618e-17
7.98618e-17
7.98618e-17
7.98618e-17
7.98618e-17
7.98618e-17
7.98618e-17
7.98618e-17
7.98618e-17
7.98618e-17
7.98618e-17
7.98618e-17
7.98618e-17
7.98618e-17
7.98618e-17
7.98618e-17
7.98618e-17
7.98618e-17
7.98618e-17
7.98618e-17
7.98618e-17
7.98618e-17
7.98618e-17
7.98618e-17
7.98618e-17
7.98618e-17
7.98618e-17
7.98618e-17
7.98618e-17
7.98618e-17
7.98618e-17
7.98618e-17
7.98618e-17
7.98618e-17
7.98618e-17
7.98618e-17
7.98618e-17
7.98618e-17
7.98618e-17
7.98618e-17
7.98618e-17
7.98618e-17
7.98618e-17
7.98618e-17
7.98618e-17
7.98618e-17
7.98618e-17
7.98618e-17
7.98618e-17
7.98618e-17
7.98618e-17
7.98618e-17
7.98618e-17
7.98618e-17
7.98618e-17
7.98618e-17
7.98618e-17
7.98618e-17
7.98618e-17
7.98618e-17
7.98618e-17
7.98618e-17
7.98618e-17
7.98618e-17
7.98618e-17
7.98618e-17
7.98618e-17
7.98618e-17
7.98618e-17
7.98618e-17
7.98618e-17
7.98618e-17
7.98618e-17
7.98618e-17
7.98618e-17
7.98618e-17
7.98618e-17
7.98618e-17
7.98618e-17
7.98618e-17
7.98618e-17
7.98618e-17
7.98618e-17
7.98618e-17
7.98618e-17
7.98618e-17
7.98618e-17
7.98618e-17
7.98618e-17
7.98618e-17
7.98618e-17
7.98618e-17
7.98618e-17
7.98618e-17
7.98618e-17
7.98618e-17
7.98618e-17
7.98618e-17
7.98618e-17
7.98618e-17
7.98618e-17
7.98618e-17
7.98618e-17
7.98618e-17
7.98618e-17
7.98618e-17
7.98618e-17
7.98618e-17
7.98618e-17
7.98618e-17
7.98618e-17
7.98618e-17
7.98618e-17
7.98618e-17
7.98618e-17
7.98618e-17
7.98618e-17
7.98618e-17
7.98618e-17
7.98618e-17
7.98618e-17
7.98618e-17
7.98618e-17
7.98618e-17
7.98618e-17
7.98618e-17
7.98618e-17
7.98618e-17
7.98618e-17
7.98618e-17
7.98618e-17
7.98618e-17
7.98618e-17
7.98618e-17
7.98618e-17
7.98618e-17
7.98618e-17
7.98618e-17
7.98618e-17
7.98618e-17
7.98618e-17
7.98618e-17
7.98618e-17
7.98618e-17
7.98618e-17
7.98618e-17
)
;

boundaryField
{
    topWall
    {
        type            calculated;
        value           uniform 0;
    }
    bottomWall
    {
        type            zeroGradient;
    }
    sideWallL
    {
        type            symmetry;
    }
    sideWallR
    {
        type            calculated;
        value           uniform 0;
    }
    frontAndBack
    {
        type            empty;
    }
}


// ************************************************************************* //
