/*--------------------------------*- C++ -*----------------------------------*\
  =========                 |
  \\      /  F ield         | OpenFOAM: The Open Source CFD Toolbox
   \\    /   O peration     | Website:  https://openfoam.org
    \\  /    A nd           | Version:  7
     \\/     M anipulation  |
\*---------------------------------------------------------------------------*/
FoamFile
{
    version     2.0;
    format      ascii;
    class       volScalarField;
    location    "3";
    object      rhois;
}
// * * * * * * * * * * * * * * * * * * * * * * * * * * * * * * * * * * * * * //

dimensions      [1 -3 0 0 0 0 0];

internalField   nonuniform List<scalar> 
900
(
2.33311e-11
2.33311e-11
2.33311e-11
2.33311e-11
2.33311e-11
2.33311e-11
2.3331e-11
2.33309e-11
2.33307e-11
2.33299e-11
2.33279e-11
2.33228e-11
2.33096e-11
2.32762e-11
2.31919e-11
2.29765e-11
2.24103e-11
2.0866e-11
1.66582e-11
7.60815e-12
7.62167e-12
7.62167e-12
7.62167e-12
7.62167e-12
7.62166e-12
7.62165e-12
7.62163e-12
7.62155e-12
7.62133e-12
7.62076e-12
7.61923e-12
7.61531e-12
7.6054e-12
7.58088e-12
7.52128e-12
7.37925e-12
7.05005e-12
6.32844e-12
4.93836e-12
2.94202e-12
3.89595e-12
3.89595e-12
3.89595e-12
3.89595e-12
3.89595e-12
3.89594e-12
3.89593e-12
3.89588e-12
3.89576e-12
3.89544e-12
3.89459e-12
3.89244e-12
3.88713e-12
3.87435e-12
3.84458e-12
3.77777e-12
3.63556e-12
3.35697e-12
2.88246e-12
2.2431e-12
2.71344e-12
2.71344e-12
2.71344e-12
2.71344e-12
2.71344e-12
2.71343e-12
2.71342e-12
2.7134e-12
2.71333e-12
2.71314e-12
2.71266e-12
2.71147e-12
2.7086e-12
2.70191e-12
2.68695e-12
2.65505e-12
2.59129e-12
2.47474e-12
2.28789e-12
2.04096e-12
2.2605e-12
2.2605e-12
2.2605e-12
2.2605e-12
2.2605e-12
2.26049e-12
2.26049e-12
2.26047e-12
2.26043e-12
2.26032e-12
2.26004e-12
2.25936e-12
2.25777e-12
2.25418e-12
2.24644e-12
2.23068e-12
2.20074e-12
2.14881e-12
2.06916e-12
1.96606e-12
2.06771e-12
2.06771e-12
2.06771e-12
2.06771e-12
2.06771e-12
2.06771e-12
2.0677e-12
2.06769e-12
2.06767e-12
2.0676e-12
2.06744e-12
2.06705e-12
2.06617e-12
2.06423e-12
2.06021e-12
2.05235e-12
2.03806e-12
2.01436e-12
1.9794e-12
1.93522e-12
1.98157e-12
1.98157e-12
1.98157e-12
1.98157e-12
1.98157e-12
1.98157e-12
1.98157e-12
1.98156e-12
1.98155e-12
1.98151e-12
1.98142e-12
1.9812e-12
1.98072e-12
1.9797e-12
1.97765e-12
1.97379e-12
1.96704e-12
1.95627e-12
1.94093e-12
1.92201e-12
1.94263e-12
1.94263e-12
1.94263e-12
1.94263e-12
1.94263e-12
1.94263e-12
1.94262e-12
1.94262e-12
1.94261e-12
1.94259e-12
1.94254e-12
1.94243e-12
1.94217e-12
1.94166e-12
1.94065e-12
1.93881e-12
1.9357e-12
1.93091e-12
1.9243e-12
1.91631e-12
1.9252e-12
1.9252e-12
1.9252e-12
1.9252e-12
1.9252e-12
1.9252e-12
1.9252e-12
1.92519e-12
1.92519e-12
1.92518e-12
1.92515e-12
1.92509e-12
1.92497e-12
1.92472e-12
1.92424e-12
1.9234e-12
1.92202e-12
1.91995e-12
1.91717e-12
1.91388e-12
1.91758e-12
1.91758e-12
1.91758e-12
1.91758e-12
1.91758e-12
1.91758e-12
1.91758e-12
1.91758e-12
1.91757e-12
1.91757e-12
1.91755e-12
1.91753e-12
1.91747e-12
1.91735e-12
1.91714e-12
1.91677e-12
1.91618e-12
1.91532e-12
1.91419e-12
1.91286e-12
1.91435e-12
1.91435e-12
1.91435e-12
1.91435e-12
1.91435e-12
1.91435e-12
1.91435e-12
1.91435e-12
1.91434e-12
1.91434e-12
1.91434e-12
1.91432e-12
1.9143e-12
1.91425e-12
1.91415e-12
1.914e-12
1.91376e-12
1.91341e-12
1.91296e-12
1.91245e-12
1.91302e-12
1.91302e-12
1.91302e-12
1.91302e-12
1.91302e-12
1.91302e-12
1.91302e-12
1.91302e-12
1.91302e-12
1.91302e-12
1.91302e-12
1.91301e-12
1.913e-12
1.91298e-12
1.91294e-12
1.91288e-12
1.91279e-12
1.91265e-12
1.91248e-12
1.91229e-12
1.9125e-12
1.9125e-12
1.9125e-12
1.9125e-12
1.9125e-12
1.9125e-12
1.9125e-12
1.9125e-12
1.9125e-12
1.9125e-12
1.9125e-12
1.9125e-12
1.91249e-12
1.91248e-12
1.91247e-12
1.91244e-12
1.91241e-12
1.91236e-12
1.9123e-12
1.91222e-12
1.9123e-12
1.9123e-12
1.9123e-12
1.9123e-12
1.9123e-12
1.9123e-12
1.9123e-12
1.9123e-12
1.9123e-12
1.9123e-12
1.9123e-12
1.9123e-12
1.9123e-12
1.91229e-12
1.91229e-12
1.91228e-12
1.91227e-12
1.91225e-12
1.91223e-12
1.9122e-12
1.91223e-12
1.91223e-12
1.91223e-12
1.91223e-12
1.91223e-12
1.91223e-12
1.91223e-12
1.91223e-12
1.91223e-12
1.91223e-12
1.91223e-12
1.91223e-12
1.91223e-12
1.91223e-12
1.91222e-12
1.91222e-12
1.91222e-12
1.91221e-12
1.9122e-12
1.91219e-12
1.9122e-12
1.9122e-12
1.9122e-12
1.9122e-12
1.9122e-12
1.9122e-12
1.9122e-12
1.9122e-12
1.9122e-12
1.9122e-12
1.9122e-12
1.9122e-12
1.9122e-12
1.9122e-12
1.9122e-12
1.9122e-12
1.9122e-12
1.9122e-12
1.91219e-12
1.91219e-12
1.91219e-12
1.91219e-12
1.91219e-12
1.91219e-12
1.91219e-12
1.91219e-12
1.91219e-12
1.91219e-12
1.91219e-12
1.91219e-12
1.91219e-12
1.91219e-12
1.91219e-12
1.91219e-12
1.91219e-12
1.91219e-12
1.91219e-12
1.91219e-12
1.91219e-12
1.91219e-12
1.91219e-12
1.91219e-12
1.91219e-12
1.91219e-12
1.91219e-12
1.91219e-12
1.91219e-12
1.91219e-12
1.91219e-12
1.91219e-12
1.91219e-12
1.91219e-12
1.91219e-12
1.91219e-12
1.91219e-12
1.91219e-12
1.91219e-12
1.91219e-12
1.91219e-12
1.91219e-12
1.91219e-12
1.91219e-12
1.91219e-12
1.91219e-12
1.91219e-12
1.91219e-12
1.91219e-12
1.91219e-12
1.91219e-12
1.91219e-12
1.91219e-12
1.91219e-12
1.91219e-12
1.91219e-12
1.91219e-12
1.91219e-12
1.91219e-12
1.91219e-12
1.91219e-12
1.91219e-12
1.91219e-12
1.91219e-12
1.91219e-12
1.91219e-12
1.91219e-12
1.91219e-12
1.91219e-12
1.91219e-12
1.91219e-12
1.91219e-12
1.91219e-12
1.91219e-12
1.91219e-12
1.91219e-12
1.91219e-12
1.91219e-12
1.91219e-12
1.91219e-12
1.91219e-12
1.91219e-12
1.91219e-12
1.91219e-12
1.91219e-12
1.91219e-12
1.91219e-12
1.91219e-12
1.91219e-12
1.91219e-12
1.91219e-12
1.91219e-12
1.91219e-12
1.91219e-12
1.91219e-12
1.91219e-12
1.91219e-12
1.91219e-12
1.91219e-12
1.91219e-12
1.91219e-12
1.91219e-12
1.91219e-12
1.91219e-12
1.91219e-12
1.91219e-12
1.91219e-12
1.91219e-12
1.91219e-12
1.91219e-12
1.91219e-12
1.91219e-12
1.91219e-12
1.91219e-12
1.91219e-12
1.91219e-12
1.91219e-12
1.91219e-12
1.91219e-12
1.91219e-12
1.91219e-12
1.91219e-12
1.91219e-12
1.91219e-12
1.91219e-12
1.91219e-12
1.91219e-12
1.91219e-12
1.91219e-12
1.91219e-12
1.91219e-12
1.91219e-12
1.91219e-12
1.91219e-12
1.91219e-12
1.91219e-12
1.91219e-12
1.91219e-12
1.91219e-12
1.91219e-12
1.91219e-12
1.91219e-12
1.91219e-12
1.91219e-12
1.91219e-12
1.91219e-12
1.91219e-12
1.91219e-12
1.91219e-12
1.91219e-12
1.91219e-12
1.91219e-12
1.91219e-12
1.91219e-12
1.91219e-12
1.91219e-12
1.91219e-12
1.91219e-12
1.91219e-12
1.91219e-12
1.91219e-12
1.91219e-12
1.91219e-12
1.91219e-12
1.91219e-12
1.91219e-12
1.91219e-12
1.91219e-12
1.91219e-12
1.91219e-12
1.91219e-12
1.91219e-12
1.91219e-12
1.91219e-12
1.91219e-12
1.91219e-12
1.91219e-12
1.91219e-12
1.91219e-12
1.91219e-12
1.91219e-12
1.91219e-12
1.91219e-12
1.91219e-12
1.91219e-12
1.91219e-12
1.91219e-12
1.91219e-12
1.91219e-12
1.91219e-12
1.91219e-12
1.91219e-12
1.91219e-12
1.91219e-12
1.91219e-12
1.91219e-12
1.91219e-12
1.91219e-12
1.91219e-12
1.91219e-12
1.91219e-12
1.91219e-12
1.91219e-12
1.91219e-12
1.91219e-12
1.91219e-12
1.91219e-12
1.91219e-12
1.91219e-12
1.91219e-12
1.91219e-12
1.91219e-12
1.91219e-12
1.91219e-12
1.91219e-12
1.91219e-12
1.91219e-12
1.91219e-12
1.91219e-12
1.91219e-12
1.91219e-12
1.91219e-12
1.91219e-12
1.91219e-12
1.91219e-12
1.91219e-12
1.91219e-12
1.91219e-12
1.91219e-12
1.91219e-12
1.91219e-12
1.91219e-12
1.91219e-12
1.91219e-12
1.91219e-12
1.91219e-12
1.91219e-12
1.91219e-12
1.91219e-12
1.91219e-12
1.91219e-12
1.91219e-12
1.91219e-12
1.91219e-12
1.91219e-12
1.91219e-12
1.91219e-12
1.91219e-12
1.91219e-12
1.91219e-12
1.91219e-12
1.91219e-12
1.91219e-12
1.91219e-12
1.91219e-12
1.91219e-12
1.91219e-12
1.91219e-12
1.91219e-12
1.91219e-12
1.91219e-12
1.91219e-12
1.91219e-12
1.91219e-12
1.91219e-12
1.91219e-12
1.91219e-12
1.91219e-12
1.91219e-12
1.91219e-12
1.91219e-12
1.91219e-12
1.91219e-12
1.91219e-12
1.91219e-12
1.91219e-12
1.91219e-12
1.91219e-12
1.91219e-12
1.91219e-12
1.91219e-12
1.91219e-12
1.91219e-12
1.91219e-12
1.91219e-12
1.91219e-12
1.91219e-12
1.91219e-12
1.91219e-12
1.91219e-12
1.91219e-12
1.91219e-12
1.91219e-12
1.91219e-12
1.91219e-12
1.91219e-12
1.91219e-12
1.91219e-12
1.91219e-12
1.91219e-12
1.91219e-12
1.91219e-12
1.91219e-12
1.91219e-12
1.91219e-12
1.91219e-12
1.91219e-12
1.91219e-12
1.91219e-12
1.91219e-12
1.91219e-12
1.91219e-12
1.91219e-12
1.91219e-12
1.91219e-12
1.91219e-12
1.91219e-12
1.91219e-12
1.91219e-12
1.91219e-12
1.91219e-12
1.91219e-12
1.91219e-12
1.91219e-12
1.91219e-12
1.91219e-12
1.91219e-12
1.91219e-12
1.91219e-12
1.91219e-12
1.91219e-12
1.91219e-12
1.91219e-12
1.91219e-12
1.91219e-12
1.91219e-12
1.91219e-12
1.91219e-12
1.91219e-12
1.91219e-12
1.91219e-12
1.91219e-12
1.91219e-12
1.91219e-12
1.91219e-12
1.91219e-12
1.91219e-12
1.91219e-12
1.91219e-12
1.91219e-12
1.91219e-12
1.91219e-12
1.91219e-12
1.91219e-12
1.91219e-12
1.91219e-12
1.91219e-12
1.91219e-12
1.91219e-12
1.91219e-12
1.91219e-12
1.91219e-12
1.91219e-12
1.91219e-12
1.91219e-12
1.91219e-12
1.91219e-12
1.91219e-12
1.91219e-12
1.91219e-12
1.91219e-12
1.91219e-12
1.91219e-12
1.91219e-12
1.91219e-12
1.91219e-12
1.91219e-12
1.91219e-12
1.91219e-12
1.91219e-12
1.91219e-12
1.91219e-12
1.91219e-12
1.91219e-12
1.91219e-12
1.91219e-12
1.91219e-12
1.91219e-12
1.91219e-12
1.91219e-12
1.91219e-12
1.91219e-12
1.91219e-12
1.91219e-12
1.91219e-12
1.91219e-12
1.91219e-12
1.91219e-12
1.91219e-12
1.91219e-12
1.91219e-12
1.91219e-12
1.91219e-12
1.91219e-12
1.91219e-12
1.91219e-12
1.91219e-12
1.91219e-12
1.91219e-12
1.91219e-12
1.91219e-12
1.91219e-12
1.91219e-12
1.91219e-12
1.91219e-12
1.91219e-12
1.91219e-12
1.91219e-12
1.91219e-12
1.91219e-12
1.91219e-12
1.91219e-12
1.91219e-12
1.91219e-12
1.91219e-12
1.91219e-12
1.91219e-12
1.91219e-12
1.91219e-12
1.91219e-12
1.91219e-12
1.91219e-12
1.91219e-12
1.91219e-12
1.91219e-12
1.91219e-12
1.91219e-12
1.91219e-12
1.91219e-12
1.91219e-12
1.91219e-12
1.91219e-12
1.91219e-12
1.91219e-12
1.91219e-12
1.91219e-12
1.91219e-12
1.91219e-12
1.91219e-12
1.91219e-12
1.91219e-12
1.91219e-12
1.91219e-12
1.91219e-12
1.91219e-12
1.91219e-12
1.91219e-12
1.91219e-12
1.91219e-12
1.91219e-12
1.91219e-12
1.91219e-12
1.91219e-12
1.91219e-12
1.91219e-12
1.91219e-12
1.91219e-12
1.91219e-12
1.91219e-12
1.91219e-12
1.91219e-12
1.91219e-12
1.91219e-12
1.91219e-12
1.91219e-12
1.91219e-12
1.91219e-12
1.91219e-12
1.91219e-12
1.91219e-12
1.91219e-12
1.91219e-12
1.91219e-12
1.91219e-12
1.91219e-12
1.91219e-12
1.91219e-12
1.91219e-12
1.91219e-12
1.91219e-12
1.91219e-12
1.91219e-12
1.91219e-12
1.91219e-12
1.91219e-12
1.91219e-12
1.91219e-12
1.91219e-12
1.91219e-12
1.91219e-12
1.91219e-12
1.91219e-12
1.91219e-12
1.91219e-12
1.91219e-12
1.91219e-12
1.91219e-12
1.91219e-12
1.91219e-12
1.91219e-12
1.91219e-12
1.91219e-12
1.91219e-12
1.91219e-12
1.91219e-12
1.91219e-12
1.91219e-12
1.91219e-12
1.91219e-12
1.91219e-12
1.91219e-12
1.91219e-12
1.91219e-12
1.91219e-12
1.91219e-12
1.91219e-12
1.91219e-12
1.91219e-12
1.91219e-12
1.91219e-12
1.91219e-12
1.91219e-12
1.91219e-12
1.91219e-12
1.91219e-12
1.91219e-12
1.91219e-12
1.91219e-12
1.91219e-12
1.91219e-12
1.91219e-12
1.91219e-12
1.91219e-12
1.91219e-12
1.91219e-12
1.91219e-12
1.91219e-12
1.91219e-12
1.91219e-12
1.91219e-12
1.91219e-12
1.91219e-12
1.91219e-12
1.91219e-12
1.91219e-12
1.91219e-12
1.91219e-12
1.91219e-12
1.91219e-12
1.91219e-12
1.91219e-12
1.91219e-12
1.91219e-12
1.91219e-12
1.91219e-12
1.91219e-12
1.91219e-12
1.91219e-12
1.91219e-12
1.91219e-12
1.91219e-12
1.91219e-12
1.91219e-12
1.91219e-12
1.91219e-12
1.91219e-12
1.91219e-12
1.91219e-12
1.91219e-12
1.91219e-12
1.91219e-12
1.91219e-12
)
;

boundaryField
{
    topWall
    {
        type            zeroGradient;
    }
    bottomWall
    {
        type            zeroGradient;
    }
    sideWallL
    {
        type            symmetry;
    }
    sideWallR
    {
        type            zeroGradient;
    }
    frontAndBack
    {
        type            empty;
    }
}


// ************************************************************************* //
