/*--------------------------------*- C++ -*----------------------------------*\
  =========                 |
  \\      /  F ield         | OpenFOAM: The Open Source CFD Toolbox
   \\    /   O peration     | Website:  https://openfoam.org
    \\  /    A nd           | Version:  7
     \\/     M anipulation  |
\*---------------------------------------------------------------------------*/
FoamFile
{
    version     2.0;
    format      ascii;
    class       volScalarField;
    location    "3";
    object      rhot2;
}
// * * * * * * * * * * * * * * * * * * * * * * * * * * * * * * * * * * * * * //

dimensions      [1 -3 0 0 0 0 0];

internalField   nonuniform List<scalar> 
900
(
2.54654e-28
2.54654e-28
2.54654e-28
2.54654e-28
2.54653e-28
2.54653e-28
2.54652e-28
2.54649e-28
2.5464e-28
2.54616e-28
2.54552e-28
2.54388e-28
2.53973e-28
2.52931e-28
2.5033e-28
2.43815e-28
2.27359e-28
1.86457e-28
1.00122e-28
1.15764e-29
1.23339e-29
1.23339e-29
1.23339e-29
1.23339e-29
1.23339e-29
1.23338e-29
1.23337e-29
1.23333e-29
1.23323e-29
1.23295e-29
1.23222e-29
1.23035e-29
1.22567e-29
1.21422e-29
1.18686e-29
1.12374e-29
9.86954e-30
7.27812e-30
3.64041e-30
8.81481e-31
1.94369e-30
1.94369e-30
1.94369e-30
1.94369e-30
1.94368e-30
1.94367e-30
1.94365e-30
1.94359e-30
1.94341e-30
1.94293e-30
1.9417e-30
1.93858e-30
1.93093e-30
1.9127e-30
1.8709e-30
1.77986e-30
1.59714e-30
1.27827e-30
8.40603e-31
4.29474e-31
7.19726e-31
7.19726e-31
7.19726e-31
7.19726e-31
7.19725e-31
7.19723e-31
7.19715e-31
7.19696e-31
7.19643e-31
7.19503e-31
7.19146e-31
7.18259e-31
7.16129e-31
7.11201e-31
7.00298e-31
6.77541e-31
6.33777e-31
5.59224e-31
4.53095e-31
3.35704e-31
4.39781e-31
4.39781e-31
4.39781e-31
4.39781e-31
4.39781e-31
4.3978e-31
4.39777e-31
4.39768e-31
4.39746e-31
4.39688e-31
4.39541e-31
4.39184e-31
4.38347e-31
4.36466e-31
4.32444e-31
4.24354e-31
4.0932e-31
3.84217e-31
3.47956e-31
3.04794e-31
3.47461e-31
3.47461e-31
3.47461e-31
3.47461e-31
3.47461e-31
3.4746e-31
3.47459e-31
3.47454e-31
3.47443e-31
3.47414e-31
3.47342e-31
3.47171e-31
3.4678e-31
3.45926e-31
3.44159e-31
3.40726e-31
3.3456e-31
3.24526e-31
3.10149e-31
2.92666e-31
3.1104e-31
3.1104e-31
3.1104e-31
3.1104e-31
3.1104e-31
3.1104e-31
3.11039e-31
3.11036e-31
3.1103e-31
3.11015e-31
3.10977e-31
3.10889e-31
3.10694e-31
3.1028e-31
3.0945e-31
3.0789e-31
3.0518e-31
3.00896e-31
2.94879e-31
2.8758e-31
2.95535e-31
2.95535e-31
2.95535e-31
2.95535e-31
2.95535e-31
2.95534e-31
2.95534e-31
2.95533e-31
2.95529e-31
2.95521e-31
2.95501e-31
2.95456e-31
2.95359e-31
2.95157e-31
2.94764e-31
2.94048e-31
2.92842e-31
2.90992e-31
2.88452e-31
2.85408e-31
2.88794e-31
2.88794e-31
2.88794e-31
2.88794e-31
2.88794e-31
2.88793e-31
2.88793e-31
2.88793e-31
2.88791e-31
2.88786e-31
2.88776e-31
2.88754e-31
2.88706e-31
2.88611e-31
2.88429e-31
2.88106e-31
2.87579e-31
2.86791e-31
2.85735e-31
2.84487e-31
2.85887e-31
2.85887e-31
2.85887e-31
2.85887e-31
2.85887e-31
2.85887e-31
2.85887e-31
2.85886e-31
2.85885e-31
2.85883e-31
2.85878e-31
2.85868e-31
2.85846e-31
2.85802e-31
2.85721e-31
2.8558e-31
2.85357e-31
2.85031e-31
2.84602e-31
2.84103e-31
2.84663e-31
2.84663e-31
2.84663e-31
2.84663e-31
2.84663e-31
2.84663e-31
2.84662e-31
2.84662e-31
2.84662e-31
2.84661e-31
2.84659e-31
2.84654e-31
2.84644e-31
2.84625e-31
2.8459e-31
2.84531e-31
2.8444e-31
2.84309e-31
2.84141e-31
2.83947e-31
2.84163e-31
2.84163e-31
2.84163e-31
2.84163e-31
2.84163e-31
2.84163e-31
2.84163e-31
2.84162e-31
2.84162e-31
2.84162e-31
2.84161e-31
2.84159e-31
2.84155e-31
2.84147e-31
2.84132e-31
2.84109e-31
2.84073e-31
2.84022e-31
2.83958e-31
2.83885e-31
2.83965e-31
2.83965e-31
2.83965e-31
2.83965e-31
2.83965e-31
2.83965e-31
2.83965e-31
2.83965e-31
2.83965e-31
2.83965e-31
2.83965e-31
2.83964e-31
2.83962e-31
2.83959e-31
2.83953e-31
2.83944e-31
2.83931e-31
2.83912e-31
2.83888e-31
2.83861e-31
2.8389e-31
2.8389e-31
2.8389e-31
2.8389e-31
2.8389e-31
2.8389e-31
2.8389e-31
2.8389e-31
2.8389e-31
2.8389e-31
2.8389e-31
2.8389e-31
2.83889e-31
2.83888e-31
2.83886e-31
2.83882e-31
2.83877e-31
2.83871e-31
2.83862e-31
2.83853e-31
2.83863e-31
2.83863e-31
2.83863e-31
2.83863e-31
2.83863e-31
2.83863e-31
2.83863e-31
2.83863e-31
2.83863e-31
2.83863e-31
2.83862e-31
2.83862e-31
2.83862e-31
2.83862e-31
2.83861e-31
2.8386e-31
2.83858e-31
2.83856e-31
2.83853e-31
2.83849e-31
2.83853e-31
2.83853e-31
2.83853e-31
2.83853e-31
2.83853e-31
2.83853e-31
2.83853e-31
2.83853e-31
2.83853e-31
2.83853e-31
2.83853e-31
2.83853e-31
2.83853e-31
2.83852e-31
2.83852e-31
2.83852e-31
2.83851e-31
2.8385e-31
2.83849e-31
2.83848e-31
2.83849e-31
2.83849e-31
2.83849e-31
2.83849e-31
2.83849e-31
2.83849e-31
2.83849e-31
2.83849e-31
2.83849e-31
2.83849e-31
2.83849e-31
2.83849e-31
2.83849e-31
2.83849e-31
2.83849e-31
2.83849e-31
2.83849e-31
2.83849e-31
2.83848e-31
2.83848e-31
2.83848e-31
2.83848e-31
2.83848e-31
2.83848e-31
2.83848e-31
2.83848e-31
2.83848e-31
2.83848e-31
2.83848e-31
2.83848e-31
2.83848e-31
2.83848e-31
2.83848e-31
2.83848e-31
2.83848e-31
2.83848e-31
2.83848e-31
2.83848e-31
2.83848e-31
2.83848e-31
2.83848e-31
2.83848e-31
2.83848e-31
2.83848e-31
2.83848e-31
2.83848e-31
2.83848e-31
2.83848e-31
2.83848e-31
2.83848e-31
2.83848e-31
2.83848e-31
2.83848e-31
2.83848e-31
2.83848e-31
2.83848e-31
2.83848e-31
2.83848e-31
2.83848e-31
2.83848e-31
2.83848e-31
2.83848e-31
2.83848e-31
2.83848e-31
2.83848e-31
2.83848e-31
2.83848e-31
2.83848e-31
2.83848e-31
2.83848e-31
2.83848e-31
2.83848e-31
2.83848e-31
2.83848e-31
2.83848e-31
2.83848e-31
2.83848e-31
2.83848e-31
2.83848e-31
2.83848e-31
2.83848e-31
2.83848e-31
2.83848e-31
2.83848e-31
2.83848e-31
2.83848e-31
2.83848e-31
2.83848e-31
2.83848e-31
2.83848e-31
2.83848e-31
2.83848e-31
2.83848e-31
2.83848e-31
2.83848e-31
2.83848e-31
2.83848e-31
2.83848e-31
2.83848e-31
2.83848e-31
2.83848e-31
2.83848e-31
2.83848e-31
2.83848e-31
2.83848e-31
2.83848e-31
2.83848e-31
2.83848e-31
2.83848e-31
2.83848e-31
2.83848e-31
2.83848e-31
2.83848e-31
2.83848e-31
2.83848e-31
2.83848e-31
2.83848e-31
2.83848e-31
2.83848e-31
2.83848e-31
2.83848e-31
2.83848e-31
2.83848e-31
2.83848e-31
2.83848e-31
2.83848e-31
2.83848e-31
2.83848e-31
2.83848e-31
2.83848e-31
2.83848e-31
2.83848e-31
2.83848e-31
2.83848e-31
2.83848e-31
2.83848e-31
2.83848e-31
2.83848e-31
2.83848e-31
2.83848e-31
2.83848e-31
2.83848e-31
2.83848e-31
2.83848e-31
2.83848e-31
2.83848e-31
2.83848e-31
2.83848e-31
2.83848e-31
2.83848e-31
2.83848e-31
2.83848e-31
2.83848e-31
2.83848e-31
2.83848e-31
2.83848e-31
2.83848e-31
2.83848e-31
2.83848e-31
2.83848e-31
2.83848e-31
2.83848e-31
2.83848e-31
2.83848e-31
2.83848e-31
2.83848e-31
2.83848e-31
2.83848e-31
2.83848e-31
2.83848e-31
2.83848e-31
2.83848e-31
2.83848e-31
2.83848e-31
2.83848e-31
2.83848e-31
2.83848e-31
2.83848e-31
2.83848e-31
2.83848e-31
2.83848e-31
2.83848e-31
2.83848e-31
2.83848e-31
2.83848e-31
2.83848e-31
2.83848e-31
2.83848e-31
2.83848e-31
2.83848e-31
2.83848e-31
2.83848e-31
2.83848e-31
2.83848e-31
2.83848e-31
2.83848e-31
2.83848e-31
2.83848e-31
2.83848e-31
2.83848e-31
2.83848e-31
2.83848e-31
2.83848e-31
2.83848e-31
2.83848e-31
2.83848e-31
2.83848e-31
2.83848e-31
2.83848e-31
2.83848e-31
2.83848e-31
2.83848e-31
2.83848e-31
2.83848e-31
2.83848e-31
2.83848e-31
2.83848e-31
2.83848e-31
2.83848e-31
2.83848e-31
2.83848e-31
2.83848e-31
2.83848e-31
2.83848e-31
2.83848e-31
2.83848e-31
2.83848e-31
2.83848e-31
2.83848e-31
2.83848e-31
2.83848e-31
2.83848e-31
2.83848e-31
2.83848e-31
2.83848e-31
2.83848e-31
2.83848e-31
2.83848e-31
2.83848e-31
2.83848e-31
2.83848e-31
2.83848e-31
2.83848e-31
2.83848e-31
2.83848e-31
2.83848e-31
2.83848e-31
2.83848e-31
2.83848e-31
2.83848e-31
2.83848e-31
2.83848e-31
2.83848e-31
2.83848e-31
2.83848e-31
2.83848e-31
2.83848e-31
2.83848e-31
2.83848e-31
2.83848e-31
2.83848e-31
2.83848e-31
2.83848e-31
2.83848e-31
2.83848e-31
2.83848e-31
2.83848e-31
2.83848e-31
2.83848e-31
2.83848e-31
2.83848e-31
2.83848e-31
2.83848e-31
2.83848e-31
2.83848e-31
2.83848e-31
2.83848e-31
2.83848e-31
2.83848e-31
2.83848e-31
2.83848e-31
2.83848e-31
2.83848e-31
2.83848e-31
2.83848e-31
2.83848e-31
2.83848e-31
2.83848e-31
2.83848e-31
2.83848e-31
2.83848e-31
2.83848e-31
2.83848e-31
2.83848e-31
2.83848e-31
2.83848e-31
2.83848e-31
2.83848e-31
2.83848e-31
2.83848e-31
2.83848e-31
2.83848e-31
2.83848e-31
2.83848e-31
2.83848e-31
2.83848e-31
2.83848e-31
2.83848e-31
2.83848e-31
2.83848e-31
2.83848e-31
2.83848e-31
2.83848e-31
2.83848e-31
2.83848e-31
2.83848e-31
2.83848e-31
2.83848e-31
2.83848e-31
2.83848e-31
2.83848e-31
2.83848e-31
2.83848e-31
2.83848e-31
2.83848e-31
2.83848e-31
2.83848e-31
2.83848e-31
2.83848e-31
2.83848e-31
2.83848e-31
2.83848e-31
2.83848e-31
2.83848e-31
2.83848e-31
2.83848e-31
2.83848e-31
2.83848e-31
2.83848e-31
2.83848e-31
2.83848e-31
2.83848e-31
2.83848e-31
2.83848e-31
2.83848e-31
2.83848e-31
2.83848e-31
2.83848e-31
2.83848e-31
2.83848e-31
2.83848e-31
2.83848e-31
2.83848e-31
2.83848e-31
2.83848e-31
2.83848e-31
2.83848e-31
2.83848e-31
2.83848e-31
2.83848e-31
2.83848e-31
2.83848e-31
2.83848e-31
2.83848e-31
2.83848e-31
2.83848e-31
2.83848e-31
2.83848e-31
2.83848e-31
2.83848e-31
2.83848e-31
2.83848e-31
2.83848e-31
2.83848e-31
2.83848e-31
2.83848e-31
2.83848e-31
2.83848e-31
2.83848e-31
2.83848e-31
2.83848e-31
2.83848e-31
2.83848e-31
2.83848e-31
2.83848e-31
2.83848e-31
2.83848e-31
2.83848e-31
2.83848e-31
2.83848e-31
2.83848e-31
2.83848e-31
2.83848e-31
2.83848e-31
2.83848e-31
2.83848e-31
2.83848e-31
2.83848e-31
2.83848e-31
2.83848e-31
2.83848e-31
2.83848e-31
2.83848e-31
2.83848e-31
2.83848e-31
2.83848e-31
2.83848e-31
2.83848e-31
2.83848e-31
2.83848e-31
2.83848e-31
2.83848e-31
2.83848e-31
2.83848e-31
2.83848e-31
2.83848e-31
2.83848e-31
2.83848e-31
2.83848e-31
2.83848e-31
2.83848e-31
2.83848e-31
2.83848e-31
2.83848e-31
2.83848e-31
2.83848e-31
2.83848e-31
2.83848e-31
2.83848e-31
2.83848e-31
2.83848e-31
2.83848e-31
2.83848e-31
2.83848e-31
2.83848e-31
2.83848e-31
2.83848e-31
2.83848e-31
2.83848e-31
2.83848e-31
2.83848e-31
2.83848e-31
2.83848e-31
2.83848e-31
2.83848e-31
2.83848e-31
2.83848e-31
2.83848e-31
2.83848e-31
2.83848e-31
2.83848e-31
2.83848e-31
2.83848e-31
2.83848e-31
2.83848e-31
2.83848e-31
2.83848e-31
2.83848e-31
2.83848e-31
2.83848e-31
2.83848e-31
2.83848e-31
2.83848e-31
2.83848e-31
2.83848e-31
2.83848e-31
2.83848e-31
2.83848e-31
2.83848e-31
2.83848e-31
2.83848e-31
2.83848e-31
2.83848e-31
2.83848e-31
2.83848e-31
2.83848e-31
2.83848e-31
2.83848e-31
2.83848e-31
2.83848e-31
2.83848e-31
2.83848e-31
2.83848e-31
2.83848e-31
2.83848e-31
2.83848e-31
2.83848e-31
2.83848e-31
2.83848e-31
2.83848e-31
2.83848e-31
2.83848e-31
2.83848e-31
2.83848e-31
2.83848e-31
2.83848e-31
2.83848e-31
2.83848e-31
2.83848e-31
2.83848e-31
2.83848e-31
2.83848e-31
2.83848e-31
2.83848e-31
2.83848e-31
2.83848e-31
2.83848e-31
2.83848e-31
2.83848e-31
2.83848e-31
2.83848e-31
2.83848e-31
2.83848e-31
2.83848e-31
2.83848e-31
2.83848e-31
2.83848e-31
2.83848e-31
2.83848e-31
2.83848e-31
2.83848e-31
2.83848e-31
2.83848e-31
2.83848e-31
2.83848e-31
2.83848e-31
2.83848e-31
2.83848e-31
2.83848e-31
2.83848e-31
2.83848e-31
2.83848e-31
2.83848e-31
2.83848e-31
2.83848e-31
2.83848e-31
2.83848e-31
2.83848e-31
2.83848e-31
2.83848e-31
2.83848e-31
2.83848e-31
2.83848e-31
2.83848e-31
2.83848e-31
2.83848e-31
2.83848e-31
2.83848e-31
2.83848e-31
2.83848e-31
2.83848e-31
2.83848e-31
2.83848e-31
2.83848e-31
2.83848e-31
2.83848e-31
2.83848e-31
2.83848e-31
2.83848e-31
2.83848e-31
2.83848e-31
2.83848e-31
2.83848e-31
2.83848e-31
2.83848e-31
2.83848e-31
2.83848e-31
2.83848e-31
2.83848e-31
2.83848e-31
2.83848e-31
2.83848e-31
2.83848e-31
2.83848e-31
2.83848e-31
2.83848e-31
2.83848e-31
2.83848e-31
2.83848e-31
2.83848e-31
)
;

boundaryField
{
    topWall
    {
        type            zeroGradient;
    }
    bottomWall
    {
        type            zeroGradient;
    }
    sideWallL
    {
        type            symmetry;
    }
    sideWallR
    {
        type            zeroGradient;
    }
    frontAndBack
    {
        type            empty;
    }
}


// ************************************************************************* //
