/*--------------------------------*- C++ -*----------------------------------*\
  =========                 |
  \\      /  F ield         | OpenFOAM: The Open Source CFD Toolbox
   \\    /   O peration     | Website:  https://openfoam.org
    \\  /    A nd           | Version:  7
     \\/     M anipulation  |
\*---------------------------------------------------------------------------*/
FoamFile
{
    version     2.0;
    format      ascii;
    class       volScalarField;
    location    "3";
    object      rhot1;
}
// * * * * * * * * * * * * * * * * * * * * * * * * * * * * * * * * * * * * * //

dimensions      [1 -3 0 0 0 0 0];

internalField   nonuniform List<scalar> 
900
(
5.24605e-14
5.24605e-14
5.24605e-14
5.24605e-14
5.24605e-14
5.24604e-14
5.24603e-14
5.24599e-14
5.2459e-14
5.24564e-14
5.24496e-14
5.2432e-14
5.23874e-14
5.22756e-14
5.1996e-14
5.12907e-14
4.94702e-14
4.46534e-14
3.23948e-14
1.06322e-14
1.10442e-14
1.10442e-14
1.10442e-14
1.10442e-14
1.10442e-14
1.10442e-14
1.10441e-14
1.10439e-14
1.10434e-14
1.10421e-14
1.10387e-14
1.10299e-14
1.1008e-14
1.09542e-14
1.08249e-14
1.05215e-14
9.83545e-15
8.39744e-15
5.86243e-15
2.80872e-15
4.24829e-15
4.24829e-15
4.24829e-15
4.24829e-15
4.24829e-15
4.24828e-15
4.24825e-15
4.24817e-15
4.24797e-15
4.24742e-15
4.246e-15
4.24242e-15
4.23361e-15
4.21261e-15
4.16416e-15
4.05697e-15
3.83392e-15
3.41361e-15
2.74422e-15
1.93551e-15
2.53544e-15
2.53544e-15
2.53544e-15
2.53544e-15
2.53544e-15
2.53544e-15
2.53542e-15
2.53539e-15
2.53529e-15
2.53503e-15
2.53437e-15
2.53272e-15
2.52876e-15
2.51961e-15
2.49927e-15
2.45638e-15
2.37206e-15
2.22197e-15
1.99109e-15
1.70356e-15
1.96167e-15
1.96167e-15
1.96167e-15
1.96167e-15
1.96167e-15
1.96166e-15
1.96166e-15
1.96164e-15
1.96158e-15
1.96145e-15
1.9611e-15
1.96026e-15
1.9583e-15
1.95389e-15
1.94443e-15
1.9253e-15
1.88933e-15
1.82792e-15
1.73588e-15
1.62032e-15
1.735e-15
1.735e-15
1.735e-15
1.735e-15
1.735e-15
1.735e-15
1.73499e-15
1.73498e-15
1.73495e-15
1.73487e-15
1.73468e-15
1.73424e-15
1.73321e-15
1.73098e-15
1.72634e-15
1.71732e-15
1.70102e-15
1.67422e-15
1.63516e-15
1.58654e-15
1.63774e-15
1.63774e-15
1.63774e-15
1.63774e-15
1.63774e-15
1.63773e-15
1.63773e-15
1.63773e-15
1.63771e-15
1.63767e-15
1.63756e-15
1.63732e-15
1.63678e-15
1.63564e-15
1.63335e-15
1.62905e-15
1.62155e-15
1.60965e-15
1.5928e-15
1.57216e-15
1.59469e-15
1.59469e-15
1.59469e-15
1.59469e-15
1.59469e-15
1.59469e-15
1.59469e-15
1.59468e-15
1.59467e-15
1.59465e-15
1.59459e-15
1.59447e-15
1.59419e-15
1.59362e-15
1.59251e-15
1.59049e-15
1.58709e-15
1.58185e-15
1.57465e-15
1.56597e-15
1.57563e-15
1.57563e-15
1.57563e-15
1.57563e-15
1.57563e-15
1.57563e-15
1.57563e-15
1.57563e-15
1.57563e-15
1.57561e-15
1.57558e-15
1.57552e-15
1.57538e-15
1.57511e-15
1.57459e-15
1.57368e-15
1.57217e-15
1.56993e-15
1.56691e-15
1.56334e-15
1.56735e-15
1.56735e-15
1.56735e-15
1.56735e-15
1.56735e-15
1.56735e-15
1.56735e-15
1.56735e-15
1.56735e-15
1.56734e-15
1.56733e-15
1.56729e-15
1.56723e-15
1.56711e-15
1.56687e-15
1.56647e-15
1.56583e-15
1.5649e-15
1.56367e-15
1.56224e-15
1.56385e-15
1.56385e-15
1.56385e-15
1.56385e-15
1.56385e-15
1.56385e-15
1.56385e-15
1.56385e-15
1.56385e-15
1.56384e-15
1.56384e-15
1.56382e-15
1.56379e-15
1.56374e-15
1.56364e-15
1.56347e-15
1.56321e-15
1.56283e-15
1.56235e-15
1.56179e-15
1.56241e-15
1.56241e-15
1.56241e-15
1.56241e-15
1.56241e-15
1.56241e-15
1.56241e-15
1.56241e-15
1.56241e-15
1.56241e-15
1.56241e-15
1.5624e-15
1.56239e-15
1.56237e-15
1.56233e-15
1.56226e-15
1.56216e-15
1.56201e-15
1.56183e-15
1.56162e-15
1.56185e-15
1.56185e-15
1.56185e-15
1.56185e-15
1.56185e-15
1.56185e-15
1.56185e-15
1.56185e-15
1.56185e-15
1.56185e-15
1.56185e-15
1.56184e-15
1.56184e-15
1.56183e-15
1.56181e-15
1.56179e-15
1.56175e-15
1.56169e-15
1.56163e-15
1.56155e-15
1.56163e-15
1.56163e-15
1.56163e-15
1.56163e-15
1.56163e-15
1.56163e-15
1.56163e-15
1.56163e-15
1.56163e-15
1.56163e-15
1.56163e-15
1.56163e-15
1.56163e-15
1.56163e-15
1.56162e-15
1.56161e-15
1.5616e-15
1.56158e-15
1.56155e-15
1.56152e-15
1.56155e-15
1.56155e-15
1.56155e-15
1.56155e-15
1.56155e-15
1.56155e-15
1.56155e-15
1.56155e-15
1.56155e-15
1.56155e-15
1.56155e-15
1.56155e-15
1.56155e-15
1.56155e-15
1.56155e-15
1.56154e-15
1.56154e-15
1.56153e-15
1.56152e-15
1.56152e-15
1.56152e-15
1.56152e-15
1.56152e-15
1.56152e-15
1.56152e-15
1.56152e-15
1.56152e-15
1.56152e-15
1.56152e-15
1.56152e-15
1.56152e-15
1.56152e-15
1.56152e-15
1.56152e-15
1.56152e-15
1.56152e-15
1.56152e-15
1.56152e-15
1.56152e-15
1.56151e-15
1.56152e-15
1.56152e-15
1.56152e-15
1.56152e-15
1.56152e-15
1.56152e-15
1.56152e-15
1.56152e-15
1.56152e-15
1.56152e-15
1.56152e-15
1.56152e-15
1.56152e-15
1.56151e-15
1.56151e-15
1.56151e-15
1.56151e-15
1.56151e-15
1.56151e-15
1.56151e-15
1.56151e-15
1.56151e-15
1.56151e-15
1.56151e-15
1.56151e-15
1.56151e-15
1.56151e-15
1.56151e-15
1.56151e-15
1.56151e-15
1.56151e-15
1.56151e-15
1.56151e-15
1.56151e-15
1.56151e-15
1.56151e-15
1.56151e-15
1.56151e-15
1.56151e-15
1.56151e-15
1.56151e-15
1.56151e-15
1.56151e-15
1.56151e-15
1.56151e-15
1.56151e-15
1.56151e-15
1.56151e-15
1.56151e-15
1.56151e-15
1.56151e-15
1.56151e-15
1.56151e-15
1.56151e-15
1.56151e-15
1.56151e-15
1.56151e-15
1.56151e-15
1.56151e-15
1.56151e-15
1.56151e-15
1.56151e-15
1.56151e-15
1.56151e-15
1.56151e-15
1.56151e-15
1.56151e-15
1.56151e-15
1.56151e-15
1.56151e-15
1.56151e-15
1.56151e-15
1.56151e-15
1.56151e-15
1.56151e-15
1.56151e-15
1.56151e-15
1.56151e-15
1.56151e-15
1.56151e-15
1.56151e-15
1.56151e-15
1.56151e-15
1.56151e-15
1.56151e-15
1.56151e-15
1.56151e-15
1.56151e-15
1.56151e-15
1.56151e-15
1.56151e-15
1.56151e-15
1.56151e-15
1.56151e-15
1.56151e-15
1.56151e-15
1.56151e-15
1.56151e-15
1.56151e-15
1.56151e-15
1.56151e-15
1.56151e-15
1.56151e-15
1.56151e-15
1.56151e-15
1.56151e-15
1.56151e-15
1.56151e-15
1.56151e-15
1.56151e-15
1.56151e-15
1.56151e-15
1.56151e-15
1.56151e-15
1.56151e-15
1.56151e-15
1.56151e-15
1.56151e-15
1.56151e-15
1.56151e-15
1.56151e-15
1.56151e-15
1.56151e-15
1.56151e-15
1.56151e-15
1.56151e-15
1.56151e-15
1.56151e-15
1.56151e-15
1.56151e-15
1.56151e-15
1.56151e-15
1.56151e-15
1.56151e-15
1.56151e-15
1.56151e-15
1.56151e-15
1.56151e-15
1.56151e-15
1.56151e-15
1.56151e-15
1.56151e-15
1.56151e-15
1.56151e-15
1.56151e-15
1.56151e-15
1.56151e-15
1.56151e-15
1.56151e-15
1.56151e-15
1.56151e-15
1.56151e-15
1.56151e-15
1.56151e-15
1.56151e-15
1.56151e-15
1.56151e-15
1.56151e-15
1.56151e-15
1.56151e-15
1.56151e-15
1.56151e-15
1.56151e-15
1.56151e-15
1.56151e-15
1.56151e-15
1.56151e-15
1.56151e-15
1.56151e-15
1.56151e-15
1.56151e-15
1.56151e-15
1.56151e-15
1.56151e-15
1.56151e-15
1.56151e-15
1.56151e-15
1.56151e-15
1.56151e-15
1.56151e-15
1.56151e-15
1.56151e-15
1.56151e-15
1.56151e-15
1.56151e-15
1.56151e-15
1.56151e-15
1.56151e-15
1.56151e-15
1.56151e-15
1.56151e-15
1.56151e-15
1.56151e-15
1.56151e-15
1.56151e-15
1.56151e-15
1.56151e-15
1.56151e-15
1.56151e-15
1.56151e-15
1.56151e-15
1.56151e-15
1.56151e-15
1.56151e-15
1.56151e-15
1.56151e-15
1.56151e-15
1.56151e-15
1.56151e-15
1.56151e-15
1.56151e-15
1.56151e-15
1.56151e-15
1.56151e-15
1.56151e-15
1.56151e-15
1.56151e-15
1.56151e-15
1.56151e-15
1.56151e-15
1.56151e-15
1.56151e-15
1.56151e-15
1.56151e-15
1.56151e-15
1.56151e-15
1.56151e-15
1.56151e-15
1.56151e-15
1.56151e-15
1.56151e-15
1.56151e-15
1.56151e-15
1.56151e-15
1.56151e-15
1.56151e-15
1.56151e-15
1.56151e-15
1.56151e-15
1.56151e-15
1.56151e-15
1.56151e-15
1.56151e-15
1.56151e-15
1.56151e-15
1.56151e-15
1.56151e-15
1.56151e-15
1.56151e-15
1.56151e-15
1.56151e-15
1.56151e-15
1.56151e-15
1.56151e-15
1.56151e-15
1.56151e-15
1.56151e-15
1.56151e-15
1.56151e-15
1.56151e-15
1.56151e-15
1.56151e-15
1.56151e-15
1.56151e-15
1.56151e-15
1.56151e-15
1.56151e-15
1.56151e-15
1.56151e-15
1.56151e-15
1.56151e-15
1.56151e-15
1.56151e-15
1.56151e-15
1.56151e-15
1.56151e-15
1.56151e-15
1.56151e-15
1.56151e-15
1.56151e-15
1.56151e-15
1.56151e-15
1.56151e-15
1.56151e-15
1.56151e-15
1.56151e-15
1.56151e-15
1.56151e-15
1.56151e-15
1.56151e-15
1.56151e-15
1.56151e-15
1.56151e-15
1.56151e-15
1.56151e-15
1.56151e-15
1.56151e-15
1.56151e-15
1.56151e-15
1.56151e-15
1.56151e-15
1.56151e-15
1.56151e-15
1.56151e-15
1.56151e-15
1.56151e-15
1.56151e-15
1.56151e-15
1.56151e-15
1.56151e-15
1.56151e-15
1.56151e-15
1.56151e-15
1.56151e-15
1.56151e-15
1.56151e-15
1.56151e-15
1.56151e-15
1.56151e-15
1.56151e-15
1.56151e-15
1.56151e-15
1.56151e-15
1.56151e-15
1.56151e-15
1.56151e-15
1.56151e-15
1.56151e-15
1.56151e-15
1.56151e-15
1.56151e-15
1.56151e-15
1.56151e-15
1.56151e-15
1.56151e-15
1.56151e-15
1.56151e-15
1.56151e-15
1.56151e-15
1.56151e-15
1.56151e-15
1.56151e-15
1.56151e-15
1.56151e-15
1.56151e-15
1.56151e-15
1.56151e-15
1.56151e-15
1.56151e-15
1.56151e-15
1.56151e-15
1.56151e-15
1.56151e-15
1.56151e-15
1.56151e-15
1.56151e-15
1.56151e-15
1.56151e-15
1.56151e-15
1.56151e-15
1.56151e-15
1.56151e-15
1.56151e-15
1.56151e-15
1.56151e-15
1.56151e-15
1.56151e-15
1.56151e-15
1.56151e-15
1.56151e-15
1.56151e-15
1.56151e-15
1.56151e-15
1.56151e-15
1.56151e-15
1.56151e-15
1.56151e-15
1.56151e-15
1.56151e-15
1.56151e-15
1.56151e-15
1.56151e-15
1.56151e-15
1.56151e-15
1.56151e-15
1.56151e-15
1.56151e-15
1.56151e-15
1.56151e-15
1.56151e-15
1.56151e-15
1.56151e-15
1.56151e-15
1.56151e-15
1.56151e-15
1.56151e-15
1.56151e-15
1.56151e-15
1.56151e-15
1.56151e-15
1.56151e-15
1.56151e-15
1.56151e-15
1.56151e-15
1.56151e-15
1.56151e-15
1.56151e-15
1.56151e-15
1.56151e-15
1.56151e-15
1.56151e-15
1.56151e-15
1.56151e-15
1.56151e-15
1.56151e-15
1.56151e-15
1.56151e-15
1.56151e-15
1.56151e-15
1.56151e-15
1.56151e-15
1.56151e-15
1.56151e-15
1.56151e-15
1.56151e-15
1.56151e-15
1.56151e-15
1.56151e-15
1.56151e-15
1.56151e-15
1.56151e-15
1.56151e-15
1.56151e-15
1.56151e-15
1.56151e-15
1.56151e-15
1.56151e-15
1.56151e-15
1.56151e-15
1.56151e-15
1.56151e-15
1.56151e-15
1.56151e-15
1.56151e-15
1.56151e-15
1.56151e-15
1.56151e-15
1.56151e-15
1.56151e-15
1.56151e-15
1.56151e-15
1.56151e-15
1.56151e-15
1.56151e-15
1.56151e-15
1.56151e-15
1.56151e-15
1.56151e-15
1.56151e-15
1.56151e-15
1.56151e-15
1.56151e-15
1.56151e-15
1.56151e-15
1.56151e-15
1.56151e-15
1.56151e-15
1.56151e-15
1.56151e-15
1.56151e-15
1.56151e-15
1.56151e-15
1.56151e-15
1.56151e-15
1.56151e-15
1.56151e-15
1.56151e-15
1.56151e-15
1.56151e-15
1.56151e-15
1.56151e-15
1.56151e-15
1.56151e-15
1.56151e-15
1.56151e-15
1.56151e-15
1.56151e-15
1.56151e-15
1.56151e-15
1.56151e-15
1.56151e-15
1.56151e-15
1.56151e-15
1.56151e-15
1.56151e-15
1.56151e-15
1.56151e-15
1.56151e-15
1.56151e-15
1.56151e-15
1.56151e-15
1.56151e-15
1.56151e-15
1.56151e-15
1.56151e-15
1.56151e-15
1.56151e-15
1.56151e-15
1.56151e-15
1.56151e-15
1.56151e-15
1.56151e-15
1.56151e-15
1.56151e-15
1.56151e-15
1.56151e-15
1.56151e-15
1.56151e-15
1.56151e-15
1.56151e-15
1.56151e-15
1.56151e-15
1.56151e-15
1.56151e-15
1.56151e-15
1.56151e-15
1.56151e-15
1.56151e-15
1.56151e-15
1.56151e-15
1.56151e-15
1.56151e-15
1.56151e-15
1.56151e-15
1.56151e-15
1.56151e-15
1.56151e-15
1.56151e-15
1.56151e-15
1.56151e-15
1.56151e-15
1.56151e-15
1.56151e-15
1.56151e-15
1.56151e-15
1.56151e-15
1.56151e-15
1.56151e-15
1.56151e-15
1.56151e-15
1.56151e-15
1.56151e-15
1.56151e-15
1.56151e-15
1.56151e-15
1.56151e-15
1.56151e-15
1.56151e-15
1.56151e-15
1.56151e-15
1.56151e-15
1.56151e-15
1.56151e-15
1.56151e-15
1.56151e-15
1.56151e-15
1.56151e-15
1.56151e-15
1.56151e-15
1.56151e-15
1.56151e-15
1.56151e-15
1.56151e-15
1.56151e-15
1.56151e-15
1.56151e-15
1.56151e-15
1.56151e-15
1.56151e-15
1.56151e-15
)
;

boundaryField
{
    topWall
    {
        type            zeroGradient;
    }
    bottomWall
    {
        type            zeroGradient;
    }
    sideWallL
    {
        type            symmetry;
    }
    sideWallR
    {
        type            calculated;
        value           uniform 0;
    }
    frontAndBack
    {
        type            empty;
    }
}


// ************************************************************************* //
