/*--------------------------------*- C++ -*----------------------------------*\
  =========                 |
  \\      /  F ield         | OpenFOAM: The Open Source CFD Toolbox
   \\    /   O peration     | Website:  https://openfoam.org
    \\  /    A nd           | Version:  7
     \\/     M anipulation  |
\*---------------------------------------------------------------------------*/
FoamFile
{
    version     2.0;
    format      ascii;
    class       volScalarField;
    location    "40";
    object      gradTx;
}
// * * * * * * * * * * * * * * * * * * * * * * * * * * * * * * * * * * * * * //

dimensions      [0 -1 0 1 0 0 0];

internalField   nonuniform List<scalar> 
900
(
-383.243
-1161.62
-1975.99
-2851.48
-3815.05
-4896.59
-6130.32
-7556.62
-9224.4
-11194
-13541
-16362.2
-19790.9
-24050.1
-29669.7
-38412.9
-57248.6
-115738
-347740
-1.14302e+06
-585.276
-1772.03
-3007.98
-4328.06
-5771
-7382.28
-9218.62
-11355
-13895.4
-16990
-20863
-25860.2
-32537.4
-41841.4
-55518.6
-77138.4
-114933
-190310
-350479
-590512
-482.759
-1469.58
-2521.68
-3687.22
-5022.02
-6593.97
-8489.26
-10821.5
-13745.5
-17479.1
-22338.3
-28796.6
-37585.9
-49875.4
-67586.1
-93923.3
-134133
-195658
-281839
-360702
-538.549
-1640.83
-2820.33
-4134.26
-5649.08
-7445.63
-9625.92
-12322.6
-15712.4
-20036
-25627.3
-32956.5
-42692.7
-55789
-73575.7
-97786.7
-130243
-171376
-215764
-243996
-611.407
-1861.92
-3197.22
-4679.65
-6380.8
-8386.35
-10802.2
-13762.2
-17439.1
-22057.5
-27912
-35387.4
-44978.4
-57295.5
-73020.8
-92729.6
-116403
-142354
-165456
-175974
-670.503
-2040.14
-3497.23
-5105.27
-6935.99
-9073.24
-11617.7
-14692.5
-18449.3
-23075.4
-28799.7
-35894.5
-44666.7
-55422.4
-68377.9
-83469.9
-100008
-116155
-128453
-132186
-708.296
-2153
-3683.31
-5360.53
-7252.49
-9436.41
-12001.9
-15054
-18715.7
-23129.2
-28453.8
-34857.1
-42492.5
-51454.7
-61695.8
-72890.8
-84249.2
-94326.2
-101004
-101967
-724.046
-2198.55
-3753.25
-5444.7
-7334.12
-9489.09
-11985.1
-14906.5
-18346.3
-22403.4
-27176.8
-32751.8
-39176.5
-46422
-54322.5
-62496.6
-70264.4
-76608.6
-80268.9
-80072.9
-719.721
-2183.07
-3718.73
-5376.93
-7210.72
-9276.8
-11635.9
-14352
-17491
-21115.7
-25278.5
-30008.1
-35289.4
-41034.1
-47044.2
-52972.1
-58294
-62325.7
-64318.1
-63657.3
-698.525
-2116.5
-3597.56
-5184.8
-6922.64
-8856.91
-11034.4
-13501.4
-16301.1
-19468.8
-23024.6
-26962.4
-31234.6
-35733.6
-40271.1
-44562.5
-48224.8
-50805.9
-51856
-51043
-664.129
-2010.16
-3409.63
-4898.4
-6512.53
-8287.83
-10258.9
-12457.6
-14909.7
-17631.2
-20621.6
-23855.8
-27274
-30770.6
-34184.2
-37294.1
-39827.4
-41486.6
-41997.5
-41175.4
-620.208
-1875.33
-3174.49
-4546.76
-6020.57
-7623.04
-9378.81
-11308.3
-13425.1
-15732.2
-18217.6
-20847.9
-23562.8
-26268.2
-28833.6
-31092.7
-32853.8
-33920.1
-34122.3
-33355
-570.149
-1722.31
-2909.86
-4155.78
-5481.88
-6908.05
-8451.11
-10123.1
-11929.2
-13864.8
-15912
-18036.2
-20181.9
-22270.4
-24199.1
-25845.2
-27074.5
-27756.3
-27784.1
-27097
-516.883
-1559.99
-2630.87
-3747.22
-4925.36
-6179.41
-7520.22
-8954
-10480.5
-12091.1
-13766
-15472.7
-17163.3
-18773.9
-20225.9
-21429.3
-22290.2
-22721
-22654
-22053.5
-462.813
-1395.62
-2349.73
-3338.42
-4373.56
-5464.82
-6618.7
-7837.46
-9117.74
-10449.1
-11812.4
-13178.7
-14508.1
-15750.2
-16845.3
-17727.8
-18331.8
-18598.5
-18484.1
-17967.7
-409.81
-1234.83
-2075.78
-2942.4
-3843.06
-4784.05
-5768.85
-6797.18
-7864.06
-8958.79
-10064
-11154.9
-12199.3
-13157.6
-13985.2
-14634.3
-15058.6
-15218.1
-15084.3
-14645.1
-359.245
-1081.69
-1815.75
-2568.37
-3345.23
-4150.17
-4984.6
-5846.74
-6731.02
-7627.3
-8520.43
-9389.86
-10209.8
-10949.9
-11576.6
-12055.3
-12353.3
-12443.2
-12306.4
-11936
-312.052
-938.974
-1574.13
-2222.3
-2887.16
-3570.81
-4273.32
-4992.13
-5721.67
-6452.83
-7172.74
-7864.69
-8508.35
-9080.46
-9556
-9909.84
-10118.8
-10164.2
-10033.6
-9723.18
-268.802
-808.346
-1353.53
-1907.5
-2472.49
-3049.4
-3637.47
-4233.84
-4833.28
-5427.88
-6006.95
-6557.05
-7062.32
-7505.04
-7866.59
-8128.69
-8274.91
-8292.23
-8172.57
-7913.92
-229.769
-690.59
-1155.11
-1625.27
-2102.28
-2586.26
-3075.98
-3568.57
-4059.33
-4541.54
-5006.47
-5443.42
-5840.09
-6183.03
-6458.4
-6652.89
-6754.8
-6755.09
-6648.44
-6433.94
-195.009
-585.825
-978.915
-1375.38
-1775.7
-2179.52
-2585.38
-2990.6
-3391.05
-3781.14
-4153.8
-4500.6
-4812.03
-5077.92
-5287.99
-5432.54
-5503.19
-5493.68
-5400.5
-5223.37
-164.41
-493.685
-824.219
-1156.52
-1490.61
-1825.84
-2160.71
-2492.78
-2818.54
-3133.36
-3431.58
-3706.61
-3951.12
-4157.44
-4317.92
-4425.49
-4474.14
-4459.52
-4379.32
-4233.63
-137.752
-413.469
-689.746
-966.695
-1244.05
-1521.01
-1796.14
-2067.29
-2331.5
-2585
-2823.29
-3041.21
-3233.17
-3393.36
-3516.1
-3596.23
-3629.45
-3612.7
-3544.51
-3425.13
-114.74
-344.271
-573.896
-803.478
-1032.58
-1260.36
-1485.51
-1706.15
-1919.82
-2123.49
-2313.58
-2486.11
-2636.76
-2761.19
-2855.17
-2914.91
-2937.34
-2920.32
-2862.9
-2765.43
-95.0399
-285.069
-474.901
-664.246
-852.59
-1039.12
-1222.64
-1401.57
-1573.89
-1737.15
-1888.55
-2024.99
-2143.19
-2239.86
-2311.87
-2356.44
-2371.37
-2355.16
-2307.22
-2227.93
-78.305
-234.804
-390.935
-546.333
-700.464
-852.564
-1001.6
-1146.23
-1284.8
-1415.38
-1535.75
-1643.53
-1736.2
-1811.31
-1866.52
-1899.8
-1909.55
-1894.74
-1855.01
-1790.72
-64.1889
-192.425
-320.207
-447.145
-572.719
-696.24
-816.816
-933.337
-1044.47
-1148.66
-1244.19
-1329.21
-1401.82
-1460.16
-1502.51
-1527.36
-1533.57
-1520.43
-1487.72
-1435.77
-52.3599
-156.926
-261.012
-364.23
-466.098
-566.01
-663.208
-756.779
-845.645
-928.584
-1004.25
-1071.23
-1128.07
-1173.37
-1205.84
-1224.41
-1228.23
-1216.81
-1190.05
-1148.22
-42.5088
-127.374
-211.769
-295.328
-377.62
-458.118
-536.189
-611.086
-681.946
-747.805
-807.618
-860.294
-904.735
-939.888
-964.798
-978.664
-980.892
-971.142
-949.359
-915.795
-34.353
-102.916
-171.039
-238.393
-304.597
-369.205
-431.69
-491.445
-547.784
-599.948
-647.127
-688.484
-723.186
-750.442
-769.542
-779.9
-781.088
-772.872
-755.237
-728.395
-27.6384
-82.7858
-137.536
-191.6
-244.648
-296.305
-346.139
-393.659
-438.321
-479.531
-516.661
-549.071
-576.129
-597.241
-611.88
-619.615
-620.141
-613.297
-599.09
-577.697
-22.1404
-66.3069
-110.125
-153.343
-195.682
-236.831
-276.436
-314.106
-349.407
-381.876
-411.03
-436.378
-457.442
-473.776
-484.988
-490.764
-490.883
-485.238
-473.845
-456.853
-17.6623
-52.8881
-87.8135
-122.225
-155.888
-188.547
-219.916
-249.681
-277.501
-303.016
-325.853
-345.637
-362.007
-374.628
-383.209
-387.52
-387.402
-382.785
-373.69
-360.238
-14.034
-42.0179
-69.7472
-97.0423
-123.71
-149.54
-174.303
-197.749
-219.611
-239.609
-257.455
-272.864
-285.564
-295.302
-301.864
-305.08
-304.837
-301.089
-293.859
-283.244
-11.1098
-33.2589
-55.195
-76.7689
-97.8224
-118.185
-137.672
-156.086
-173.219
-188.854
-202.768
-214.747
-224.581
-232.085
-237.098
-239.497
-239.2
-236.177
-230.451
-222.1
-8.76612
-26.24
-43.5375
-60.5361
-77.1068
-93.1121
-108.405
-122.831
-136.225
-148.421
-159.249
-168.543
-176.149
-181.924
-185.751
-187.539
-187.231
-184.807
-180.288
-173.736
-6.89911
-20.6494
-34.2549
-47.6157
-60.6273
-73.1796
-85.1561
-96.4343
-106.887
-116.385
-124.799
-132.001
-137.876
-142.318
-145.239
-146.572
-146.277
-144.342
-140.784
-135.655
-5.42218
-16.2274
-26.9145
-37.4025
-47.6072
-57.4404
-66.81
-75.6199
-83.7712
-91.1637
-97.698
-103.279
-107.817
-111.234
-113.464
-114.459
-114.19
-112.649
-109.853
-105.841
-4.264
-12.7602
-21.1603
-29.3988
-37.4081
-45.1177
-52.4547
-59.3436
-65.7073
-71.4683
-76.5505
-80.881
-84.3925
-87.0259
-88.7327
-89.4771
-89.2387
-88.0132
-85.8142
-82.6733
-3.36644
-10.0734
-16.7022
-23.1998
-29.5116
-35.5813
-41.3508
-46.7608
-51.7508
-56.2608
-60.2318
-63.6082
-66.3386
-68.3786
-69.6917
-70.2517
-70.0439
-69.0662
-67.3302
-64.8607
-2.6829
-8.02745
-13.308
-18.4812
-23.5028
-28.3273
-32.9083
-37.1983
-41.1498
-44.7154
-47.8495
-50.5087
-52.6537
-54.2505
-55.2715
-55.6973
-55.5173
-54.7307
-53.3472
-51.3868
-2.17677
-6.51263
-10.7953
-14.9888
-19.0566
-22.9615
-26.6654
-30.1301
-33.3171
-36.1888
-38.7087
-40.8427
-42.5599
-43.8339
-44.6434
-44.9736
-44.8169
-44.1731
-43.0507
-41.4659
-1.82024
-5.44562
-9.02556
-12.5295
-15.9263
-19.1846
-22.2724
-25.1578
-27.809
-30.1947
-32.2851
-34.0523
-35.4713
-36.5208
-37.1839
-37.4489
-37.31
-36.7677
-35.8292
-34.5082
-1.5933
-4.76646
-7.8992
-10.9644
-13.9345
-16.7818
-19.4783
-21.996
-24.3072
-26.3849
-28.2033
-29.7385
-30.9692
-31.8772
-32.4482
-32.6727
-32.5459
-32.0685
-31.247
-30.0935
-1.48301
-4.43639
-7.35182
-10.2038
-12.9666
-15.6144
-18.1209
-20.4602
-22.6065
-24.5349
-26.2215
-27.6444
-28.784
-29.6236
-30.1503
-30.3554
-30.2346
-29.7888
-29.0242
-27.9521
)
;

boundaryField
{
    topWall
    {
        type            calculated;
        value           nonuniform List<scalar> 
20
(
-1.48301
-4.43639
-7.35182
-10.2038
-12.9666
-15.6144
-18.1209
-20.4602
-22.6065
-24.5349
-26.2215
-27.6444
-28.784
-29.6236
-30.1503
-30.3554
-30.2346
-29.7888
-29.0242
-27.9521
)
;
    }
    bottomWall
    {
        type            calculated;
        value           nonuniform List<scalar> 
20
(
-383.243
-1161.62
-1975.99
-2851.48
-3815.05
-4896.59
-6130.32
-7556.62
-9224.4
-11194
-13541
-16362.2
-19790.9
-24050.1
-29669.7
-38412.9
-57248.6
-115738
-347740
-1.14302e+06
)
;
    }
    sideWallL
    {
        type            symmetry;
    }
    sideWallR
    {
        type            calculated;
        value           nonuniform List<scalar> 
45
(
-1.75145e+06
-721360
-390526
-250470
-176576
-131276
-100742
-78884.5
-62603.2
-50140.7
-40415.8
-32721
-26570.5
-21617.8
-17608
-14348.7
-11692.2
-9523.11
-7750
-6299.9
-5114
-4144.58
-3352.79
-2706.82
-2180.55
-1752.53
-1405.07
-1123.6
-896.119
-712.714
-565.237
-446.983
-352.444
-277.107
-217.282
-169.963
-132.706
-103.538
-80.8725
-63.4467
-50.2656
-40.5605
-33.7542
-29.4357
-27.3409
)
;
    }
    frontAndBack
    {
        type            empty;
    }
}


// ************************************************************************* //
