/*--------------------------------*- C++ -*----------------------------------*\
  =========                 |
  \\      /  F ield         | OpenFOAM: The Open Source CFD Toolbox
   \\    /   O peration     | Website:  https://openfoam.org
    \\  /    A nd           | Version:  7
     \\/     M anipulation  |
\*---------------------------------------------------------------------------*/
FoamFile
{
    version     2.0;
    format      ascii;
    class       volScalarField;
    location    "40";
    object      gradTy;
}
// * * * * * * * * * * * * * * * * * * * * * * * * * * * * * * * * * * * * * //

dimensions      [0 -1 0 1 0 0 0];

internalField   nonuniform List<scalar> 
900
(
-285469
-286437
-288403
-291421
-295582
-301007
-307861
-316356
-326773
-339476
-354957
-373880
-397179
-426208
-463071
-511397
-578622
-683578
-884670
-1.3818e+06
-256007
-256106
-256315
-256652
-257150
-257859
-258848
-260218
-262113
-264739
-268398
-273536
-280832
-291331
-306657
-329247
-362168
-406132
-442087
-340231
-202283
-202236
-202152
-202049
-201958
-201927
-202021
-202334
-202989
-204151
-206035
-208915
-213131
-219071
-227079
-237128
-247727
-252438
-228793
-117723
-161031
-161159
-161423
-161835
-162415
-163193
-164208
-165506
-167148
-169200
-171727
-174774
-178318
-182166
-185738
-187601
-184544
-169871
-131240
-53487.3
-140572
-140704
-140971
-141380
-141942
-142667
-143569
-144659
-145939
-147396
-148979
-150568
-151917
-152542
-151550
-147345
-137233
-117109
-82011.8
-29798.4
-124902
-124998
-125193
-125485
-125874
-126356
-126924
-127556
-128215
-128833
-129287
-129374
-128757
-126888
-122916
-115563
-103077
-83409.8
-55048.9
-18958.5
-111222
-111275
-111380
-111531
-111720
-111930
-112136
-112297
-112350
-112194
-111678
-110571
-108535
-105081
-99534.5
-91025.5
-78561.3
-61282.3
-39015.1
-13097.9
-98791.9
-98803.3
-98821.9
-98838.7
-98838.3
-98796.9
-98678.7
-98430.9
-97976.8
-97206.2
-95963.3
-94030.9
-91114.4
-86827.7
-80693.8
-72176.2
-60775.1
-46221
-28774.5
-9534.81
-87372.6
-87347
-87290.5
-87191.4
-87030.6
-86779.9
-86398.4
-85829.1
-84993.2
-83783.9
-82058.6
-79631.7
-76269.2
-71689.8
-65580.8
-57638.4
-47646.7
-35598.9
-21843.9
-7185.95
-76887.4
-76831.8
-76714.5
-76522.7
-76236
-75824.6
-75247
-74447.6
-73352.6
-71866.3
-69868
-67209.4
-63715.7
-59194
-53452.2
-46334
-37774.1
-27867.4
-16935
-5546.85
-67311.1
-67232.8
-67070
-66809.7
-66431.9
-65907.7
-65198
-64252.1
-63005
-61376.2
-59268.4
-56569.1
-53154
-48897.3
-43688.6
-37459.7
-30218.9
-22088.7
-13333.1
-4354.93
-58627.1
-58533.1
-58339.2
-58033.3
-57596.6
-57002.7
-56216.8
-55194.8
-53882.4
-52214.4
-50116
-47504.8
-44296.4
-40412.7
-35796.2
-30427.6
-24347.4
-17674.7
-10617.1
-3461.31
-50811.7
-50708.4
-50496.3
-50164.7
-49696.8
-49069.5
-48253.2
-47210.9
-45898.9
-44266.4
-42257.7
-39814.8
-36882.5
-33415.4
-29388.2
-24807.7
-19724.8
-14244.1
-8525.65
-2775.79
-43830.3
-43723
-43503.6
-43162.8
-42686.2
-42054.5
-41243
-40222.1
-38957.3
-37410.6
-35541.6
-33310.9
-30684.1
-27637.1
-24163.9
-20283.3
-16046.5
-11540.7
-6888.65
-2240.64
-37637.7
-37530.6
-37312.6
-36975.5
-36507.7
-35893.2
-35112.4
-34141.9
-32955.5
-31525.4
-29823.3
-27823.3
-25505.5
-22859.3
-19889.2
-16618.6
-13094.1
-9387
-5591.17
-1817.29
-32180.8
-32077.3
-31866.9
-31543.3
-31096.8
-30514.9
-29782.2
-28880.8
-27791.5
-26494.1
-24969.7
-23202.2
-21180.9
-18903.9
-16380.6
-13635.2
-10708.1
-7656.63
-4552.78
-1478.93
-27401.4
-27303.7
-27105.6
-26802
-26385.5
-25846.1
-25172.2
-24350.6
-23367.2
-22208.2
-20861.2
-19317
-17571
-15626
-13493.8
-11196.9
-8769.38
-6257.11
-3715.48
-1206.4
-23239
-23148.6
-22965.7
-22686.4
-22304.8
-21813.6
-21204
-20466.5
-19591.1
-18568.7
-17391.7
-16055.3
-14558.9
-12907.8
-11114
-9197.76
-7187.43
-5119.4
-3036.48
-985.555
-19633
-19550.7
-19384.6
-19131.7
-18787.6
-18346.8
-17803
-17149.5
-16379.5
-15487.1
-14468.2
-13320.9
-12046.9
-10652.6
-9149.47
-7554.98
-5892.52
-4190.94
-2483.44
-805.801
-16524.3
-16450.5
-16301.8
-16075.9
-15769.7
-15379.1
-14899.8
-14327.1
-13656.6
-12884.8
-12009.8
-11031.7
-9953.38
-8781.39
-7526.25
-6202.79
-4830.1
-3431.08
-2031.55
-659.001
-13856.9
-13791.5
-13660
-13460.7
-13191.2
-12849
-12430.8
-11933.7
-11355
-10692.9
-9946.85
-9118.04
-8210.04
-7229.08
-6184.45
-5088.61
-3957.05
-2807.95
-1661.48
-538.83
-11578.2
-11520.9
-11405.8
-11231.7
-10997.1
-10700.1
-10338.6
-9910.84
-9415.31
-8851.29
-8219.16
-7520.78
-6759.78
-5941.92
-5075.22
-4170.03
-3238.92
-2296.29
-1357.94
-440.301
-9639.72
-9590.05
-9490.31
-9339.73
-9137.26
-8881.69
-8571.79
-8206.49
-7785.16
-7307.78
-6775.29
-6189.78
-5554.78
-4875.42
-4158.53
-3412.67
-2647.96
-1875.86
-1108.76
-359.442
-7997.49
-7954.78
-7869.09
-7739.93
-7566.64
-7348.48
-7084.75
-6774.98
-6419.03
-6017.37
-5571.19
-5082.64
-4554.97
-3992.66
-3401.47
-2788.42
-2161.68
-1530.34
-904.14
-293.061
-6611.73
-6575.3
-6502.27
-6392.34
-6245.12
-6060.22
-5837.32
-5576.31
-5277.4
-4941.29
-4569.29
-4163.46
-3726.71
-3262.9
-2776.83
-2274.25
-1761.72
-1246.46
-736.139
-238.572
-5446.94
-5416.09
-5354.29
-5261.39
-5137.19
-4981.52
-4794.32
-4575.7
-4326.08
-4046.27
-3737.58
-3401.91
-3041.8
-2660.54
-2262.11
-1851.18
-1433.02
-1013.38
-598.283
-193.87
-4471.61
-4445.66
-4393.73
-4315.74
-4211.63
-4081.38
-3925.07
-3742.99
-3535.63
-3303.83
-3048.83
-2772.33
-2476.53
-2164.19
-1838.59
-1503.52
-1163.2
-822.197
-485.271
-157.231
-3658
-3636.32
-3592.95
-3527.89
-3441.14
-3332.79
-3203.02
-3052.16
-2880.77
-2689.64
-2479.91
-2253.07
-2011
-1755.98
-1490.72
-1218.27
-942.028
-665.598
-392.742
-127.238
-2981.84
-2963.83
-2927.83
-2873.86
-2801.99
-2712.36
-2605.19
-2480.84
-2339.85
-2182.98
-2011.22
-1825.85
-1628.47
-1420.97
-1205.55
-984.67
-761.041
-537.531
-317.102
-102.723
-2421.97
-2407.1
-2377.38
-2332.87
-2273.65
-2199.9
-2111.84
-2009.85
-1894.41
-1766.22
-1626.14
-1475.26
-1314.92
-1146.66
-972.27
-793.74
-613.222
-432.989
-255.377
-82.7204
-1960.1
-1947.88
-1923.49
-1886.97
-1838.44
-1778.05
-1706.06
-1622.8
-1528.72
-1424.42
-1310.65
-1188.33
-1058.55
-922.584
-781.881
-638.03
-492.745
-347.825
-205.11
-66.4328
-1580.44
-1570.46
-1550.54
-1520.74
-1481.17
-1431.98
-1373.41
-1305.76
-1229.43
-1144.94
-1052.92
-954.129
-849.482
-740.007
-626.868
-511.336
-394.773
-278.598
-164.261
-53.1984
-1269.46
-1261.36
-1245.18
-1220.98
-1188.88
-1149.01
-1101.58
-1046.87
-985.228
-917.079
-842.96
-763.504
-679.447
-591.626
-500.973
-408.501
-315.288
-222.455
-131.14
-42.469
-1015.62
-1009.06
-995.988
-976.446
-950.532
-918.38
-880.169
-836.135
-786.575
-731.853
-672.412
-608.768
-541.521
-471.343
-398.978
-325.232
-250.955
-177.03
-104.347
-33.7904
-809.061
-803.794
-793.284
-777.584
-756.777
-730.981
-700.349
-665.083
-625.431
-581.697
-534.244
-483.491
-429.923
-374.076
-316.545
-257.964
-199.004
-140.357
-82.7217
-26.7861
-641.461
-637.251
-628.852
-616.31
-599.698
-579.115
-554.693
-526.6
-495.041
-460.268
-422.573
-382.298
-339.828
-295.593
-250.061
-203.733
-157.136
-110.811
-65.3012
-21.1441
-505.768
-502.424
-495.755
-485.801
-472.622
-456.301
-436.95
-414.706
-389.739
-362.252
-332.482
-300.701
-267.217
-232.369
-196.527
-160.082
-123.446
-87.0407
-51.2886
-16.6062
-396.036
-393.4
-388.146
-380.306
-369.929
-357.087
-341.868
-324.385
-304.777
-283.205
-259.86
-234.957
-208.739
-181.473
-153.447
-124.967
-96.3522
-67.9286
-40.0235
-12.9583
-307.251
-305.195
-301.097
-294.983
-286.894
-276.887
-265.035
-251.428
-236.176
-219.408
-201.273
-181.942
-161.603
-140.463
-118.748
-96.6914
-74.5405
-52.5456
-30.9576
-10.0228
-235.184
-233.603
-230.451
-225.75
-219.533
-211.845
-202.743
-192.299
-180.598
-167.741
-153.845
-139.04
-123.473
-107.301
-90.6971
-73.8402
-56.9173
-40.1188
-23.6348
-7.65171
-176.249
-175.059
-172.688
-169.152
-164.477
-158.697
-151.857
-144.012
-135.227
-125.578
-115.155
-104.055
-92.3892
-80.2764
-67.8445
-55.2281
-42.5664
-30.001
-17.6733
-5.72154
-127.386
-126.523
-124.804
-122.241
-118.852
-114.664
-109.709
-104.028
-97.6689
-90.6875
-83.1482
-75.1231
-66.6918
-57.9407
-48.9621
-39.8531
-30.7137
-21.6458
-12.7508
-4.12785
-85.946
-85.3626
-84.1999
-82.4665
-80.1754
-77.3443
-73.9957
-70.1572
-65.8616
-61.1472
-56.0577
-50.6418
-44.9535
-39.051
-32.9968
-26.8559
-20.6958
-14.5849
-8.59116
-2.7812
-49.5928
-49.2555
-48.5835
-47.5818
-46.2579
-44.6222
-42.6877
-40.4707
-37.9901
-35.2682
-32.3303
-29.2047
-25.9224
-22.5173
-19.0252
-15.4837
-11.9316
-8.40827
-4.95274
-1.60332
-16.206
-16.0957
-15.8759
-15.5483
-15.1154
-14.5805
-13.948
-13.2232
-12.4122
-11.5225
-10.5623
-9.54079
-8.46823
-7.35562
-6.21469
-5.05771
-3.89735
-2.74643
-1.61772
-0.523692
)
;

boundaryField
{
    topWall
    {
        type            calculated;
        value           uniform 0;
    }
    bottomWall
    {
        type            calculated;
        value           nonuniform List<scalar> 
20
(
-290474
-292007
-295120
-299911
-306526
-315171
-326112
-339692
-356339
-376590
-401115
-430754
-466564
-509917
-562764
-628596
-716416
-857591
-1.17937e+06
-2.24855e+06
)
;
    }
    sideWallL
    {
        type            symmetry;
    }
    sideWallR
    {
        type            calculated;
        value           nonuniform List<scalar> 
45
(
-1.3818e+06
-340231
-117723
-53487.3
-29798.4
-18958.5
-13097.9
-9534.81
-7185.95
-5546.85
-4354.93
-3461.31
-2775.79
-2240.64
-1817.29
-1478.93
-1206.4
-985.555
-805.801
-659.001
-538.83
-440.301
-359.442
-293.061
-238.572
-193.87
-157.231
-127.238
-102.723
-82.7204
-66.4328
-53.1984
-42.469
-33.7904
-26.7861
-21.1441
-16.6062
-12.9583
-10.0228
-7.65171
-5.72154
-4.12785
-2.7812
-1.60332
-0.523692
)
;
    }
    frontAndBack
    {
        type            empty;
    }
}


// ************************************************************************* //
