/*--------------------------------*- C++ -*----------------------------------*\
  =========                 |
  \\      /  F ield         | OpenFOAM: The Open Source CFD Toolbox
   \\    /   O peration     | Website:  https://openfoam.org
    \\  /    A nd           | Version:  7
     \\/     M anipulation  |
\*---------------------------------------------------------------------------*/
FoamFile
{
    version     2.0;
    format      ascii;
    class       volScalarField;
    location    "40";
    object      rhoc;
}
// * * * * * * * * * * * * * * * * * * * * * * * * * * * * * * * * * * * * * //

dimensions      [1 -3 0 0 0 0 0];

internalField   nonuniform List<scalar> 
900
(
0.00412748
0.00410707
0.00406564
0.00400197
0.00391427
0.00380021
0.003657
0.0034816
0.00327092
0.00302227
0.00273396
0.00240619
0.00204205
0.00164861
0.00123746
0.000824576
0.000433819
0.000124118
4.3774e-06
4.98741e-12
4.28313e-05
4.23538e-05
4.13923e-05
3.99349e-05
3.79673e-05
3.54777e-05
3.2464e-05
2.89435e-05
2.49668e-05
2.06337e-05
1.61105e-05
1.16415e-05
7.54412e-06
4.16853e-06
1.80113e-06
5.17731e-07
7.07116e-08
2.05727e-09
1.32363e-12
1.08093e-20
7.18288e-07
7.06558e-07
6.83072e-07
6.47839e-07
6.01015e-07
5.4309e-07
4.75135e-07
3.99106e-07
3.18141e-07
2.36741e-07
1.60624e-07
9.5978e-08
4.79167e-08
1.83919e-08
4.72867e-09
6.39776e-10
2.90583e-11
1.8124e-13
2.37841e-17
1.66897e-24
1.38891e-08
1.35652e-08
1.29238e-08
1.19799e-08
1.07605e-08
9.30934e-09
7.69227e-09
6.00018e-09
4.34736e-09
2.8605e-09
1.6556e-09
8.04989e-10
3.07224e-10
8.3026e-11
1.3524e-11
1.02396e-12
2.34318e-14
7.88182e-17
1.23171e-20
2.70164e-26
2.6525e-10
2.57088e-10
2.41129e-10
2.18142e-10
1.8936e-10
1.56535e-10
1.21936e-10
8.82186e-11
5.81193e-11
3.39345e-11
1.69137e-11
6.82783e-12
2.07162e-12
4.24048e-13
4.99892e-14
2.68649e-15
4.6713e-17
1.62536e-19
6.44225e-23
2.92957e-27
5.06794e-12
4.87527e-12
4.50324e-12
3.97873e-12
3.34202e-12
2.64549e-12
1.94974e-12
1.31612e-12
7.95974e-13
4.18734e-13
1.84119e-13
6.41066e-14
1.6419e-14
2.79658e-15
2.76017e-16
1.31172e-17
2.36511e-19
1.23322e-21
1.54071e-24
7.71899e-28
1.00635e-13
9.61485e-14
8.75865e-14
7.57517e-14
6.17888e-14
4.70813e-14
3.30797e-14
2.10632e-14
1.188e-14
5.76017e-15
2.30867e-15
7.26722e-16
1.68077e-16
2.62081e-17
2.47115e-18
1.23488e-19
2.8285e-21
2.63171e-23
1.02074e-25
3.26611e-28
2.16972e-15
2.06108e-15
1.85582e-15
1.57692e-15
1.25577e-15
9.28077e-16
6.28219e-16
3.82819e-16
2.0538e-16
9.42865e-17
3.57285e-17
1.0681e-17
2.38185e-18
3.70257e-19
3.70872e-20
2.20083e-21
7.18931e-23
1.26394e-24
1.37553e-26
1.82565e-28
5.30903e-17
5.02123e-17
4.4819e-17
3.75891e-17
2.94196e-17
2.12831e-17
1.40523e-17
8.33065e-18
4.34403e-18
1.94217e-18
7.21581e-19
2.14573e-19
4.88722e-20
8.11499e-21
9.32994e-22
7.09527e-23
3.48837e-24
1.1512e-25
3.09728e-27
1.21542e-28
1.53704e-18
1.44971e-18
1.28701e-18
1.07093e-18
8.29877e-19
5.93558e-19
3.87293e-19
2.27169e-19
1.17632e-19
5.2614e-20
1.98119e-20
6.09898e-21
1.48631e-21
2.77445e-22
3.8523e-23
3.91029e-24
2.93313e-25
1.74796e-26
1.02024e-27
9.07785e-29
5.46248e-20
5.14661e-20
4.55997e-20
3.78483e-20
2.92572e-20
2.08953e-20
1.36469e-20
8.04773e-21
4.22056e-21
1.93394e-21
7.58998e-22
2.49707e-22
6.73909e-23
1.46347e-23
2.52601e-24
3.47475e-25
3.93407e-26
4.01008e-27
4.46695e-28
7.33297e-29
2.45612e-21
2.31541e-21
2.05427e-21
1.70953e-21
1.32762e-21
9.55575e-22
6.31961e-22
3.80021e-22
2.05276e-22
9.82616e-23
4.10806e-23
1.47845e-23
4.5218e-24
1.16536e-24
2.53131e-25
4.71001e-26
7.84982e-27
1.28539e-27
2.41861e-28
6.2578e-29
1.42921e-22
1.35011e-22
1.20309e-22
1.00844e-22
7.91739e-23
5.78941e-23
3.91538e-23
2.42905e-23
1.36969e-23
6.9515e-24
3.14473e-24
1.25722e-24
4.41629e-25
1.36261e-25
3.72639e-26
9.25779e-27
2.19462e-27
5.39118e-28
1.53287e-28
5.5545e-29
1.09238e-23
1.03537e-23
9.29056e-24
7.87432e-24
6.28253e-24
4.69763e-24
3.2743e-24
2.11452e-24
1.25699e-24
6.83406e-25
3.37909e-25
1.51376e-25
6.14226e-26
2.27e-26
7.75424e-27
2.51848e-27
8.1445e-28
2.79564e-28
1.09104e-28
5.07373e-29
1.10503e-24
1.05195e-24
9.52459e-25
8.18773e-25
6.66543e-25
5.12168e-25
3.70037e-25
2.50332e-25
1.57918e-25
9.25605e-26
5.02915e-26
2.53297e-26
1.18698e-26
5.2237e-27
2.19633e-27
9.06569e-28
3.81377e-28
1.70759e-28
8.45728e-29
4.7341e-29
1.48174e-25
1.41783e-25
1.29732e-25
1.13367e-25
9.44409e-26
7.4832e-26
5.6258e-26
4.00281e-26
2.6897e-26
1.70469e-26
1.01929e-26
5.76524e-27
3.10362e-27
1.60751e-27
8.14437e-28
4.12783e-28
2.14933e-28
1.18056e-28
6.98094e-29
4.48813e-29
2.62575e-26
2.52679e-26
2.33892e-26
2.0808e-26
1.77712e-26
1.45511e-26
1.14072e-26
8.5521e-27
6.12833e-27
4.1993e-27
2.757e-27
1.74148e-27
1.06571e-27
6.38325e-28
3.79358e-28
2.27367e-28
1.39796e-28
8.95283e-29
6.03657e-29
4.30659e-29
6.10803e-27
5.91296e-27
5.53994e-27
5.02118e-27
4.39998e-27
3.72541e-27
3.04633e-27
2.40554e-27
1.83531e-27
1.35492e-27
9.70597e-28
6.77667e-28
4.64099e-28
3.14364e-28
2.12716e-28
1.45344e-28
1.01332e-28
7.27183e-29
5.40385e-29
4.17066e-29
1.84417e-27
1.79592e-27
1.70301e-27
1.57223e-27
1.41287e-27
1.23577e-27
1.05215e-27
8.72456e-28
7.0535e-28
5.57016e-28
4.30881e-28
3.27775e-28
2.46446e-28
1.84257e-28
1.37912e-28
1.04049e-28
7.96327e-29
6.21492e-29
4.96466e-29
4.06775e-29
7.09458e-28
6.94773e-28
6.66301e-28
6.25765e-28
5.75561e-28
5.18558e-28
4.57836e-28
3.96421e-28
3.37019e-28
2.81814e-28
2.32335e-28
1.89423e-28
1.53289e-28
1.2364e-28
9.98363e-29
8.10597e-29
6.64428e-29
5.51668e-29
4.65146e-29
3.9892e-29
3.38307e-28
3.32933e-28
3.22451e-28
3.07374e-28
2.88429e-28
2.66509e-28
2.42601e-28
2.17722e-28
1.92838e-28
1.68804e-28
1.46303e-28
1.25824e-28
1.07651e-28
9.18818e-29
7.84629e-29
6.72307e-29
5.79547e-29
5.03758e-29
4.42342e-29
3.92885e-29
1.93097e-28
1.90794e-28
1.8628e-28
1.79731e-28
1.71401e-28
1.61607e-28
1.50714e-28
1.39108e-28
1.27178e-28
1.15289e-28
1.03764e-28
9.28656e-29
8.27878e-29
7.36552e-29
6.55261e-29
5.84039e-29
5.22487e-29
4.69918e-29
4.25474e-29
3.88229e-29
1.27106e-28
1.25983e-28
1.2377e-28
1.20538e-28
1.16386e-28
1.11442e-28
1.05855e-28
9.97889e-29
9.34171e-29
8.69094e-29
8.04264e-29
7.41112e-29
6.80831e-29
6.24348e-29
5.72308e-29
5.25089e-29
4.82831e-29
4.45482e-29
4.12846e-29
3.84625e-29
9.32576e-29
9.26491e-29
9.14468e-29
8.96806e-29
8.73939e-29
8.46432e-29
8.14963e-29
7.80297e-29
7.43264e-29
7.04717e-29
6.65504e-29
6.26427e-29
5.88209e-29
5.51474e-29
5.16723e-29
4.84334e-29
4.54559e-29
4.27535e-29
4.03305e-29
3.81828e-29
7.41595e-29
7.38018e-29
7.30933e-29
7.2048e-29
7.06866e-29
6.90362e-29
6.71301e-29
6.50069e-29
6.27094e-29
6.02833e-29
5.77755e-29
5.52328e-29
5.26997e-29
5.0217e-29
4.78206e-29
4.55407e-29
4.34009e-29
4.14185e-29
3.96048e-29
3.79657e-29
6.25593e-29
6.23354e-29
6.18909e-29
6.12331e-29
6.03723e-29
5.93229e-29
5.81022e-29
5.67309e-29
5.52325e-29
5.3633e-29
5.19596e-29
5.02404e-29
4.85036e-29
4.6776e-29
4.50827e-29
4.34459e-29
4.18851e-29
4.04157e-29
3.90501e-29
3.77969e-29
5.51043e-29
5.49571e-29
5.46646e-29
5.42307e-29
5.36611e-29
5.29634e-29
5.21477e-29
5.12255e-29
5.02105e-29
4.9118e-29
4.79647e-29
4.67681e-29
4.55463e-29
4.43173e-29
4.30984e-29
4.19059e-29
4.07546e-29
3.96573e-29
3.86248e-29
3.76657e-29
5.01029e-29
5.00026e-29
4.9803e-29
4.95064e-29
4.91161e-29
4.86365e-29
4.80735e-29
4.7434e-29
4.67264e-29
4.596e-29
4.51455e-29
4.42941e-29
4.34178e-29
4.25288e-29
4.16392e-29
4.07608e-29
3.99046e-29
3.90807e-29
3.82979e-29
3.75638e-29
4.66368e-29
4.65665e-29
4.64265e-29
4.62182e-29
4.59436e-29
4.56055e-29
4.52073e-29
4.47535e-29
4.42494e-29
4.37009e-29
4.3115e-29
4.24992e-29
4.18616e-29
4.12105e-29
4.05545e-29
3.99022e-29
3.92617e-29
3.86407e-29
3.80464e-29
3.74848e-29
4.41749e-29
4.41246e-29
4.40244e-29
4.38752e-29
4.36782e-29
4.34351e-29
4.31484e-29
4.28208e-29
4.24558e-29
4.20573e-29
4.16301e-29
4.11792e-29
4.07102e-29
4.0229e-29
3.97417e-29
3.92545e-29
3.87734e-29
3.83044e-29
3.78528e-29
3.74236e-29
4.23939e-29
4.23574e-29
4.22845e-29
4.2176e-29
4.20326e-29
4.18555e-29
4.16462e-29
4.14066e-29
4.11391e-29
4.08465e-29
4.05318e-29
4.01987e-29
3.98511e-29
3.94931e-29
3.91293e-29
3.87639e-29
3.84017e-29
3.80469e-29
3.77038e-29
3.73762e-29
4.10878e-29
4.10609e-29
4.10074e-29
4.09276e-29
4.08221e-29
4.06917e-29
4.05374e-29
4.03606e-29
4.01629e-29
3.99462e-29
3.97128e-29
3.94652e-29
3.92061e-29
3.89387e-29
3.8666e-29
3.83914e-29
3.81182e-29
3.78498e-29
3.75893e-29
3.73397e-29
4.01204e-29
4.01005e-29
4.00609e-29
4.00017e-29
3.99235e-29
3.98268e-29
3.97122e-29
3.95809e-29
3.94339e-29
3.92726e-29
3.90986e-29
3.89137e-29
3.87199e-29
3.85195e-29
3.83148e-29
3.81081e-29
3.7902e-29
3.7699e-29
3.75014e-29
3.73115e-29
3.93989e-29
3.93841e-29
3.93546e-29
3.93105e-29
3.92522e-29
3.91801e-29
3.90947e-29
3.89966e-29
3.88869e-29
3.87663e-29
3.86362e-29
3.84978e-29
3.83525e-29
3.82021e-29
3.80482e-29
3.78925e-29
3.77371e-29
3.75836e-29
3.7434e-29
3.72899e-29
3.88583e-29
3.88473e-29
3.88252e-29
3.87922e-29
3.87486e-29
3.86946e-29
3.86307e-29
3.85574e-29
3.84752e-29
3.83849e-29
3.82874e-29
3.81836e-29
3.80746e-29
3.79616e-29
3.78458e-29
3.77286e-29
3.76114e-29
3.74956e-29
3.73824e-29
3.72733e-29
3.84523e-29
3.8444e-29
3.84274e-29
3.84027e-29
3.837e-29
3.83295e-29
3.82816e-29
3.82266e-29
3.8165e-29
3.80973e-29
3.80241e-29
3.79462e-29
3.78643e-29
3.77794e-29
3.76924e-29
3.76042e-29
3.75159e-29
3.74285e-29
3.73431e-29
3.72606e-29
3.8147e-29
3.81407e-29
3.81283e-29
3.81097e-29
3.80852e-29
3.80548e-29
3.80189e-29
3.79776e-29
3.79313e-29
3.78804e-29
3.78255e-29
3.7767e-29
3.77055e-29
3.76417e-29
3.75762e-29
3.75099e-29
3.74434e-29
3.73776e-29
3.73132e-29
3.7251e-29
3.79177e-29
3.79131e-29
3.79037e-29
3.78897e-29
3.78713e-29
3.78484e-29
3.78214e-29
3.77903e-29
3.77555e-29
3.77173e-29
3.7676e-29
3.7632e-29
3.75858e-29
3.75378e-29
3.74886e-29
3.74387e-29
3.73887e-29
3.73391e-29
3.72906e-29
3.72437e-29
3.77462e-29
3.77427e-29
3.77356e-29
3.77251e-29
3.77111e-29
3.76939e-29
3.76735e-29
3.76501e-29
3.76239e-29
3.75951e-29
3.7564e-29
3.75308e-29
3.7496e-29
3.74599e-29
3.74228e-29
3.73852e-29
3.73475e-29
3.73102e-29
3.72736e-29
3.72382e-29
3.76187e-29
3.7616e-29
3.76106e-29
3.76026e-29
3.75921e-29
3.7579e-29
3.75636e-29
3.75458e-29
3.7526e-29
3.75042e-29
3.74806e-29
3.74555e-29
3.74292e-29
3.74019e-29
3.73738e-29
3.73454e-29
3.73169e-29
3.72886e-29
3.72609e-29
3.72341e-29
3.75251e-29
3.7523e-29
3.75189e-29
3.75128e-29
3.75047e-29
3.74947e-29
3.74828e-29
3.74693e-29
3.74541e-29
3.74374e-29
3.74194e-29
3.74002e-29
3.73801e-29
3.73592e-29
3.73378e-29
3.73161e-29
3.72943e-29
3.72727e-29
3.72515e-29
3.72311e-29
3.74579e-29
3.74563e-29
3.74531e-29
3.74483e-29
3.7442e-29
3.74342e-29
3.74249e-29
3.74143e-29
3.74025e-29
3.73895e-29
3.73755e-29
3.73605e-29
3.73449e-29
3.73286e-29
3.73119e-29
3.7295e-29
3.72781e-29
3.72613e-29
3.72448e-29
3.72289e-29
3.74117e-29
3.74104e-29
3.74078e-29
3.7404e-29
3.73989e-29
3.73926e-29
3.73851e-29
3.73766e-29
3.7367e-29
3.73566e-29
3.73453e-29
3.73333e-29
3.73206e-29
3.73076e-29
3.72942e-29
3.72806e-29
3.72669e-29
3.72534e-29
3.72402e-29
3.72274e-29
3.73829e-29
3.73818e-29
3.73796e-29
3.73763e-29
3.7372e-29
3.73666e-29
3.73603e-29
3.7353e-29
3.73449e-29
3.7336e-29
3.73264e-29
3.73162e-29
3.73055e-29
3.72944e-29
3.7283e-29
3.72715e-29
3.726e-29
3.72485e-29
3.72373e-29
3.72265e-29
3.7369e-29
3.7368e-29
3.7366e-29
3.7363e-29
3.7359e-29
3.73541e-29
3.73483e-29
3.73417e-29
3.73343e-29
3.73261e-29
3.73174e-29
3.7308e-29
3.72982e-29
3.72881e-29
3.72777e-29
3.72672e-29
3.72566e-29
3.72462e-29
3.72359e-29
3.7226e-29
)
;

boundaryField
{
    topWall
    {
        type            zeroGradient;
    }
    bottomWall
    {
        type            zeroGradient;
    }
    sideWallL
    {
        type            symmetry;
    }
    sideWallR
    {
        type            zeroGradient;
    }
    frontAndBack
    {
        type            empty;
    }
}


// ************************************************************************* //
