/*--------------------------------*- C++ -*----------------------------------*\
  =========                 |
  \\      /  F ield         | OpenFOAM: The Open Source CFD Toolbox
   \\    /   O peration     | Website:  https://openfoam.org
    \\  /    A nd           | Version:  7
     \\/     M anipulation  |
\*---------------------------------------------------------------------------*/
FoamFile
{
    version     2.0;
    format      ascii;
    class       volScalarField;
    location    "40";
    object      rhog;
}
// * * * * * * * * * * * * * * * * * * * * * * * * * * * * * * * * * * * * * //

dimensions      [1 -3 0 0 0 0 0];

internalField   nonuniform List<scalar> 
900
(
9.54305
9.50714
9.43405
9.32125
9.16492
8.95988
8.69968
8.3766
7.98186
7.50609
6.94008
6.27608
5.50983
4.64287
3.68456
2.65256
1.58055
0.595734
0.0602861
1.9683e-05
0.273732
0.271545
0.267124
0.26038
0.251186
0.239398
0.224871
0.207494
0.18724
0.164233
0.138833
0.111743
0.0841047
0.0575504
0.0341393
0.0160647
0.00496798
0.00063693
8.93892e-06
1.52187e-10
0.0199815
0.0197836
0.0193836
0.0187738
0.0179437
0.0168822
0.0155803
0.0140359
0.0122598
0.0102846
0.00817457
0.00603507
0.0040154
0.00229533
0.00104106
0.000325599
5.39539e-05
2.79081e-06
1.46066e-08
7.90449e-13
0.00199232
0.00196499
0.00191009
0.00182721
0.00171605
0.00157676
0.00141048
0.00122009
0.00101104
0.000792141
0.000576039
0.000378524
0.000216043
0.000100841
3.50192e-05
7.76151e-06
8.49914e-07
2.981e-08
1.65315e-10
6.50263e-14
0.000202651
0.000198984
0.000191671
0.000180776
0.000166437
0.000148925
0.000128713
0.00010655
8.35108e-05
6.09977e-05
4.06189e-05
2.39109e-05
1.19074e-05
4.70653e-06
1.34426e-06
2.41307e-07
2.2144e-08
7.74464e-10
7.2268e-12
1.66833e-14
2.05145e-05
2.00537e-05
1.91421e-05
1.7802e-05
1.60725e-05
1.40153e-05
1.17202e-05
9.30913e-06
6.93268e-06
4.75722e-06
2.93804e-06
1.58177e-06
7.10613e-07
2.50868e-07
6.40867e-08
1.0594e-08
9.79734e-10
4.27665e-11
7.72157e-13
7.30453e-15
2.10347e-06
2.04777e-06
1.93842e-06
1.77972e-06
1.57866e-06
1.3453e-06
1.09299e-06
8.37999e-07
5.98189e-07
3.90575e-07
2.27903e-07
1.15278e-07
4.8574e-08
1.61921e-08
3.99835e-09
6.74742e-10
7.10842e-11
4.3154e-12
1.5038e-13
4.2645e-15
2.24053e-07
2.17355e-07
2.04294e-07
1.85554e-07
1.62196e-07
1.3566e-07
1.07723e-07
8.0385e-08
5.56288e-08
3.51019e-08
1.97663e-08
9.66762e-09
3.9708e-09
1.31455e-09
3.34298e-10
6.19775e-11
7.98557e-12
6.99933e-13
4.45096e-14
2.95396e-15
2.54599e-08
2.46321e-08
2.30268e-08
2.07452e-08
1.79388e-08
1.48043e-08
1.15725e-08
8.48561e-09
5.76523e-09
3.57425e-09
1.98443e-09
9.64557e-10
3.99646e-10
1.36942e-10
3.75818e-11
8.01974e-12
1.30736e-12
1.65168e-13
1.78346e-14
2.2808e-15
3.16635e-09
3.05798e-09
2.84874e-09
2.55345e-09
2.19374e-09
1.79683e-09
1.39337e-09
1.01399e-09
6.8499e-10
4.23952e-10
2.36696e-10
1.17099e-10
5.03292e-11
1.84108e-11
5.62455e-12
1.41694e-12
2.95018e-13
5.25805e-14
8.95231e-15
1.89278e-15
4.4096e-10
4.25539e-10
3.95847e-10
3.54132e-10
3.0362e-10
2.48278e-10
1.92446e-10
1.40321e-10
9.53658e-11
5.97668e-11
3.41228e-11
1.75147e-11
7.97347e-12
3.17956e-12
1.10084e-12
3.3063e-13
8.74393e-14
2.13177e-14
5.32678e-15
1.65058e-15
7.00889e-11
6.76514e-11
6.29644e-11
5.63928e-11
4.84541e-11
3.97756e-11
3.10318e-11
2.28637e-11
1.57915e-11
1.01396e-11
5.99845e-12
3.23984e-12
1.58434e-12
6.97212e-13
2.75697e-13
9.86603e-14
3.26752e-14
1.05197e-14
3.60499e-15
1.49054e-15
1.29001e-11
1.24651e-11
1.16286e-11
1.04554e-11
9.03692e-12
7.4829e-12
5.91073e-12
4.4315e-12
3.13571e-12
2.08137e-12
1.28799e-12
7.38899e-13
3.91332e-13
1.91083e-13
8.6344e-14
3.6547e-14
1.48682e-14
6.08773e-15
2.68845e-15
1.38028e-15
2.77597e-12
2.68735e-12
2.51674e-12
2.27692e-12
1.98586e-12
1.66517e-12
1.33795e-12
1.02625e-12
7.4838e-13
5.16712e-13
3.36507e-13
2.06127e-13
1.18645e-13
6.43085e-14
3.3059e-14
1.63566e-14
7.98925e-15
4.00249e-15
2.15631e-15
1.30192e-15
7.01947e-13
6.81219e-13
6.41228e-13
5.848e-13
5.15912e-13
4.39367e-13
3.60337e-13
2.83834e-13
2.14151e-13
1.54384e-13
1.06149e-13
6.95657e-14
4.35149e-14
2.60963e-14
1.51386e-14
8.62247e-15
4.92935e-15
2.90959e-15
1.8261e-15
1.2449e-15
2.08799e-13
2.03227e-13
1.92447e-13
1.77161e-13
1.58361e-13
1.37254e-13
1.15156e-13
9.33684e-14
7.30461e-14
5.50801e-14
4.00182e-14
2.80423e-14
1.90079e-14
1.25332e-14
8.11269e-15
5.2236e-15
3.40299e-15
2.28586e-15
1.6104e-15
1.20265e-15
7.29138e-14
7.11981e-14
6.78678e-14
6.31187e-14
5.72293e-14
5.05414e-14
4.34333e-14
3.62881e-14
2.94583e-14
2.32339e-14
1.78171e-14
1.33112e-14
9.72411e-15
6.98591e-15
4.97573e-15
3.55022e-15
2.5679e-15
1.9052e-15
1.46378e-15
1.1709e-15
2.9761e-14
2.91598e-14
2.79887e-14
2.63089e-14
2.42075e-14
2.17931e-14
1.91875e-14
1.65173e-14
1.39031e-14
1.14501e-14
9.23893e-15
7.32143e-15
5.71891e-15
4.42549e-15
3.41444e-15
2.64614e-15
2.07591e-15
1.66028e-15
1.36098e-15
1.1468e-15
1.4104e-14
1.38665e-14
1.34022e-14
1.27323e-14
1.1887e-14
1.09046e-14
9.82875e-15
8.7057e-15
7.58123e-15
6.49715e-15
5.48829e-15
4.58023e-15
3.78825e-15
3.11753e-15
2.56461e-15
2.11953e-15
1.76846e-15
1.49602e-15
1.28716e-15
1.12835e-15
7.68582e-15
7.58117e-15
7.37596e-15
7.07817e-15
6.69942e-15
6.25447e-15
5.76045e-15
5.236e-15
4.70006e-15
4.17074e-15
3.66405e-15
3.19297e-15
2.76681e-15
2.39094e-15
2.06704e-15
1.79368e-15
1.56712e-15
1.3822e-15
1.23314e-15
1.11415e-15
4.75121e-15
4.70044e-15
4.60056e-15
4.45487e-15
4.26821e-15
4.04678e-15
3.7979e-15
3.52969e-15
3.25064e-15
2.96917e-15
2.69312e-15
2.42932e-15
2.18321e-15
1.9587e-15
1.75806e-15
1.58209e-15
1.4303e-15
1.30129e-15
1.19302e-15
1.10315e-15
3.27497e-15
3.24817e-15
3.19531e-15
3.11786e-15
3.01798e-15
2.89848e-15
2.76273e-15
2.61452e-15
2.45793e-15
2.29714e-15
2.13618e-15
1.97879e-15
1.82819e-15
1.68696e-15
1.55696e-15
1.43934e-15
1.33458e-15
1.24261e-15
1.1629e-15
1.09462e-15
2.46909e-15
2.45389e-15
2.42385e-15
2.37966e-15
2.32236e-15
2.25329e-15
2.17412e-15
2.08673e-15
1.99321e-15
1.89573e-15
1.7965e-15
1.69761e-15
1.60102e-15
1.50838e-15
1.42106e-15
1.34007e-15
1.26606e-15
1.19938e-15
1.14007e-15
1.08798e-15
1.99792e-15
1.98877e-15
1.97064e-15
1.94389e-15
1.90904e-15
1.86679e-15
1.81798e-15
1.76362e-15
1.70482e-15
1.64279e-15
1.57877e-15
1.51399e-15
1.44965e-15
1.38683e-15
1.32648e-15
1.26938e-15
1.21613e-15
1.16714e-15
1.12267e-15
1.08281e-15
1.70639e-15
1.7006e-15
1.68911e-15
1.67211e-15
1.64988e-15
1.62279e-15
1.5913e-15
1.55598e-15
1.51744e-15
1.47639e-15
1.43355e-15
1.38967e-15
1.34551e-15
1.30176e-15
1.2591e-15
1.2181e-15
1.17923e-15
1.14288e-15
1.10934e-15
1.07878e-15
1.5175e-15
1.51368e-15
1.5061e-15
1.49486e-15
1.48012e-15
1.46208e-15
1.44101e-15
1.41724e-15
1.39113e-15
1.36309e-15
1.33358e-15
1.30306e-15
1.27201e-15
1.24092e-15
1.21022e-15
1.18035e-15
1.15167e-15
1.1245e-15
1.09909e-15
1.07564e-15
1.39049e-15
1.38789e-15
1.38273e-15
1.37506e-15
1.36497e-15
1.35259e-15
1.33808e-15
1.32162e-15
1.30345e-15
1.28383e-15
1.26302e-15
1.24134e-15
1.21911e-15
1.19665e-15
1.17426e-15
1.15226e-15
1.13092e-15
1.11049e-15
1.09119e-15
1.07319e-15
1.30254e-15
1.30072e-15
1.29711e-15
1.29174e-15
1.28467e-15
1.27597e-15
1.26574e-15
1.2541e-15
1.24119e-15
1.22718e-15
1.21225e-15
1.1966e-15
1.18045e-15
1.16401e-15
1.14752e-15
1.13118e-15
1.1152e-15
1.09979e-15
1.0851e-15
1.07128e-15
1.2402e-15
1.23891e-15
1.23633e-15
1.2325e-15
1.22744e-15
1.22121e-15
1.21387e-15
1.20549e-15
1.19617e-15
1.18602e-15
1.17515e-15
1.16372e-15
1.15185e-15
1.13972e-15
1.12747e-15
1.11526e-15
1.10325e-15
1.09158e-15
1.08039e-15
1.0698e-15
1.19521e-15
1.19428e-15
1.19241e-15
1.18964e-15
1.18597e-15
1.18144e-15
1.17609e-15
1.16998e-15
1.16317e-15
1.15573e-15
1.14774e-15
1.1393e-15
1.13052e-15
1.12149e-15
1.11234e-15
1.10318e-15
1.09413e-15
1.08529e-15
1.07676e-15
1.06865e-15
1.16229e-15
1.16161e-15
1.16024e-15
1.15821e-15
1.15551e-15
1.15219e-15
1.14826e-15
1.14376e-15
1.13873e-15
1.13323e-15
1.12731e-15
1.12104e-15
1.1145e-15
1.10775e-15
1.10089e-15
1.094e-15
1.08716e-15
1.08045e-15
1.07396e-15
1.06776e-15
1.13795e-15
1.13744e-15
1.13643e-15
1.13493e-15
1.13294e-15
1.13047e-15
1.12756e-15
1.12422e-15
1.12049e-15
1.11639e-15
1.11199e-15
1.10731e-15
1.10241e-15
1.09735e-15
1.09219e-15
1.087e-15
1.08182e-15
1.07674e-15
1.0718e-15
1.06707e-15
1.11981e-15
1.11943e-15
1.11868e-15
1.11756e-15
1.11608e-15
1.11424e-15
1.11207e-15
1.10958e-15
1.1068e-15
1.10374e-15
1.10044e-15
1.09694e-15
1.09326e-15
1.08946e-15
1.08558e-15
1.08166e-15
1.07775e-15
1.07389e-15
1.07014e-15
1.06654e-15
1.10622e-15
1.10594e-15
1.10538e-15
1.10454e-15
1.10343e-15
1.10206e-15
1.10043e-15
1.09857e-15
1.09648e-15
1.09419e-15
1.09172e-15
1.08909e-15
1.08633e-15
1.08347e-15
1.08054e-15
1.07759e-15
1.07463e-15
1.07171e-15
1.06887e-15
1.06613e-15
1.096e-15
1.09579e-15
1.09537e-15
1.09474e-15
1.09391e-15
1.09288e-15
1.09166e-15
1.09027e-15
1.0887e-15
1.08698e-15
1.08512e-15
1.08315e-15
1.08107e-15
1.07892e-15
1.07671e-15
1.07448e-15
1.07225e-15
1.07005e-15
1.06789e-15
1.06581e-15
1.0883e-15
1.08814e-15
1.08783e-15
1.08736e-15
1.08673e-15
1.08596e-15
1.08505e-15
1.084e-15
1.08282e-15
1.08153e-15
1.08013e-15
1.07865e-15
1.07708e-15
1.07546e-15
1.07381e-15
1.07212e-15
1.07044e-15
1.06878e-15
1.06715e-15
1.06557e-15
1.0825e-15
1.08239e-15
1.08215e-15
1.08179e-15
1.08132e-15
1.08074e-15
1.08005e-15
1.07927e-15
1.07838e-15
1.07741e-15
1.07636e-15
1.07524e-15
1.07407e-15
1.07285e-15
1.0716e-15
1.07033e-15
1.06906e-15
1.06781e-15
1.06658e-15
1.06539e-15
1.07814e-15
1.07805e-15
1.07787e-15
1.07761e-15
1.07725e-15
1.07682e-15
1.0763e-15
1.0757e-15
1.07504e-15
1.07431e-15
1.07352e-15
1.07268e-15
1.07179e-15
1.07087e-15
1.06993e-15
1.06898e-15
1.06802e-15
1.06708e-15
1.06615e-15
1.06525e-15
1.07487e-15
1.07481e-15
1.07467e-15
1.07447e-15
1.0742e-15
1.07387e-15
1.07348e-15
1.07303e-15
1.07253e-15
1.07198e-15
1.07138e-15
1.07075e-15
1.07008e-15
1.06939e-15
1.06868e-15
1.06796e-15
1.06724e-15
1.06653e-15
1.06583e-15
1.06515e-15
1.07244e-15
1.07239e-15
1.07229e-15
1.07213e-15
1.07193e-15
1.07168e-15
1.07138e-15
1.07104e-15
1.07066e-15
1.07024e-15
1.06979e-15
1.06931e-15
1.06881e-15
1.06828e-15
1.06775e-15
1.0672e-15
1.06666e-15
1.06611e-15
1.06558e-15
1.06507e-15
1.07065e-15
1.07061e-15
1.07053e-15
1.07042e-15
1.07026e-15
1.07007e-15
1.06984e-15
1.06958e-15
1.06929e-15
1.06897e-15
1.06862e-15
1.06826e-15
1.06787e-15
1.06747e-15
1.06706e-15
1.06664e-15
1.06622e-15
1.06581e-15
1.0654e-15
1.06501e-15
1.06937e-15
1.06934e-15
1.06928e-15
1.06918e-15
1.06906e-15
1.06891e-15
1.06874e-15
1.06853e-15
1.0683e-15
1.06805e-15
1.06778e-15
1.0675e-15
1.0672e-15
1.06688e-15
1.06656e-15
1.06624e-15
1.06591e-15
1.06559e-15
1.06528e-15
1.06497e-15
1.06849e-15
1.06846e-15
1.06841e-15
1.06834e-15
1.06824e-15
1.06812e-15
1.06797e-15
1.06781e-15
1.06763e-15
1.06743e-15
1.06721e-15
1.06698e-15
1.06673e-15
1.06648e-15
1.06622e-15
1.06596e-15
1.0657e-15
1.06544e-15
1.06519e-15
1.06494e-15
1.06793e-15
1.06791e-15
1.06787e-15
1.06781e-15
1.06772e-15
1.06762e-15
1.0675e-15
1.06736e-15
1.0672e-15
1.06703e-15
1.06685e-15
1.06665e-15
1.06644e-15
1.06623e-15
1.06601e-15
1.06579e-15
1.06557e-15
1.06535e-15
1.06513e-15
1.06492e-15
1.06767e-15
1.06765e-15
1.06761e-15
1.06755e-15
1.06748e-15
1.06738e-15
1.06727e-15
1.06714e-15
1.067e-15
1.06684e-15
1.06667e-15
1.06649e-15
1.06631e-15
1.06611e-15
1.06591e-15
1.06571e-15
1.0655e-15
1.0653e-15
1.06511e-15
1.06492e-15
)
;

boundaryField
{
    topWall
    {
        type            calculated;
        value           uniform 0;
    }
    bottomWall
    {
        type            zeroGradient;
    }
    sideWallL
    {
        type            symmetry;
    }
    sideWallR
    {
        type            calculated;
        value           uniform 0;
    }
    frontAndBack
    {
        type            empty;
    }
}


// ************************************************************************* //
