/*--------------------------------*- C++ -*----------------------------------*\
  =========                 |
  \\      /  F ield         | OpenFOAM: The Open Source CFD Toolbox
   \\    /   O peration     | Website:  https://openfoam.org
    \\  /    A nd           | Version:  7
     \\/     M anipulation  |
\*---------------------------------------------------------------------------*/
FoamFile
{
    version     2.0;
    format      ascii;
    class       volScalarField;
    location    "40";
    object      rhois;
}
// * * * * * * * * * * * * * * * * * * * * * * * * * * * * * * * * * * * * * //

dimensions      [1 -3 0 0 0 0 0];

internalField   nonuniform List<scalar> 
900
(
3.09888
3.09297
3.08089
3.06215
3.03597
3.00128
2.95665
2.90026
2.82983
2.74255
2.63499
2.50304
2.34171
2.1448
1.90383
1.60475
1.22062
0.714554
0.172604
0.000535492
0.44867
0.446657
0.44256
0.43623
0.427447
0.41591
0.401241
0.382986
0.360627
0.333616
0.301432
0.263704
0.220425
0.17232
0.121451
0.0720448
0.0311664
0.00698341
0.000308015
1.08281e-07
0.0804618
0.0799163
0.0788076
0.0771007
0.0747444
0.0716728
0.0678098
0.0630767
0.0574058
0.0507634
0.0431853
0.0348298
0.0260444
0.0174298
0.00984521
0.00423453
0.00114416
0.000132277
2.9126e-06
2.53298e-09
0.0151447
0.0149965
0.0146967
0.0142392
0.0136155
0.0128165
0.0118344
0.0106667
0.00932074
0.00782107
0.00621736
0.00459186
0.00306102
0.00176261
0.000818328
0.000274001
5.49668e-05
4.83819e-06
1.13654e-07
4.37218e-10
0.0028206
0.00278389
0.00271011
0.00259863
0.00244888
0.00226083
0.00203566
0.00177671
0.0014906
0.00118833
0.000885949
0.000604004
0.000364709
0.000186218
7.5114e-05
2.16408e-05
3.83993e-06
3.4099e-07
1.19336e-08
1.70193e-10
0.000523085
0.000514621
0.000497709
0.000472421
0.000438958
0.000397777
0.000349736
0.000296275
0.000239566
0.000182579
0.000128933
8.2435e-05
4.62333e-05
2.17795e-05
8.12089e-06
2.21254e-06
3.97437e-07
4.19205e-08
2.4136e-09
9.64972e-11
9.82167e-05
9.63427e-05
9.26201e-05
8.71088e-05
7.99195e-05
7.12381e-05
6.13525e-05
5.06754e-05
3.97526e-05
2.92396e-05
1.98296e-05
1.21296e-05
6.5031e-06
2.9447e-06
1.07459e-06
2.98587e-07
5.93792e-08
8.04573e-09
7.58768e-10
6.67756e-11
1.9034e-05
1.86242e-05
1.78145e-05
1.66263e-05
1.5096e-05
1.32786e-05
1.12518e-05
9.11712e-06
6.99707e-06
5.02453e-06
3.3241e-06
1.98704e-06
1.04768e-06
4.73245e-07
1.77062e-07
5.2945e-08
1.2276e-08
2.19477e-09
3.24276e-10
5.19413e-11
3.88296e-06
3.79215e-06
3.6135e-06
3.35332e-06
3.02171e-06
2.6332e-06
2.20703e-06
1.76679e-06
1.33899e-06
9.50223e-07
6.23012e-07
3.71354e-07
1.97475e-07
9.17267e-08
3.64136e-08
1.21239e-08
3.35946e-09
7.90965e-10
1.72754e-10
4.34938e-11
8.49657e-07
8.28784e-07
7.87868e-07
7.28618e-07
6.537e-07
5.66797e-07
4.7258e-07
3.76514e-07
2.84428e-07
2.01833e-07
1.33066e-07
8.0492e-08
4.40654e-08
2.15318e-08
9.27871e-09
3.50456e-09
1.16845e-09
3.56028e-10
1.08128e-10
3.82448e-11
2.02801e-07
1.97725e-07
1.878e-07
1.73484e-07
1.55475e-07
1.34716e-07
1.12362e-07
8.97237e-08
6.81494e-08
4.88659e-08
3.2799e-08
2.0421e-08
1.16876e-08
6.10123e-09
2.89219e-09
1.24826e-09
4.98428e-10
1.91512e-10
7.6223e-11
3.47795e-11
5.35459e-08
5.2219e-08
4.96274e-08
4.58969e-08
4.12161e-08
3.58345e-08
3.00525e-08
2.42033e-08
1.86226e-08
1.36108e-08
9.39204e-09
6.08229e-09
3.67769e-09
2.06999e-09
1.08569e-09
5.3504e-10
2.52749e-10
1.18763e-10
5.86719e-11
3.23903e-11
1.58088e-08
1.54311e-08
1.46938e-08
1.36328e-08
1.23016e-08
1.07703e-08
9.12212e-09
7.44844e-09
5.84062e-09
4.38038e-09
3.12968e-09
2.12306e-09
1.36465e-09
8.31569e-10
4.82633e-10
2.69766e-10
1.48149e-10
8.24009e-11
4.81999e-11
3.06894e-11
5.25823e-09
5.14027e-09
4.90983e-09
4.57786e-09
4.16057e-09
3.679e-09
3.15807e-09
2.62503e-09
2.10722e-09
1.62939e-09
1.21098e-09
8.63953e-10
5.91854e-10
3.90424e-10
2.49623e-10
1.56475e-10
9.78366e-11
6.23925e-11
4.15545e-11
2.94492e-11
1.97911e-09
1.9385e-09
1.85908e-09
1.74439e-09
1.59973e-09
1.43191e-09
1.24902e-09
1.05994e-09
8.73656e-10
6.98494e-10
5.4127e-10
4.06631e-10
2.96689e-10
2.11083e-10
1.47444e-10
1.02147e-10
7.11205e-11
5.05197e-11
3.71334e-11
2.85283e-11
8.44345e-10
8.28929e-10
7.98725e-10
7.5498e-10
6.99542e-10
6.34806e-10
5.63622e-10
4.89142e-10
4.14608e-10
3.43097e-10
2.77248e-10
2.19032e-10
1.69599e-10
1.2925e-10
9.75384e-11
7.34715e-11
5.57587e-11
4.30445e-11
3.40831e-11
2.7835e-11
4.07907e-10
4.0147e-10
3.88833e-10
3.70466e-10
3.47066e-10
3.19541e-10
2.88978e-10
2.56592e-10
2.23657e-10
1.91413e-10
1.60975e-10
1.33238e-10
1.08819e-10
8.80226e-11
7.08602e-11
5.70997e-11
4.63442e-11
3.81138e-11
3.19182e-11
2.73075e-11
2.22251e-10
2.1931e-10
2.13525e-10
2.05084e-10
1.94271e-10
1.81455e-10
1.67084e-10
1.51665e-10
1.35736e-10
1.19838e-10
1.04479e-10
9.00906e-11
7.70076e-11
6.54442e-11
5.54932e-11
4.71376e-11
4.02736e-11
3.47401e-11
3.03476e-11
2.69028e-11
1.35531e-10
1.34072e-10
1.31194e-10
1.2698e-10
1.21553e-10
1.15073e-10
1.07738e-10
9.97737e-11
9.14258e-11
8.29468e-11
7.45816e-11
6.6552e-11
5.90427e-11
5.21916e-11
4.60846e-11
4.07566e-11
3.6198e-11
3.23644e-11
2.91885e-11
2.65905e-11
9.14492e-11
9.0669e-11
8.91274e-11
8.68619e-11
8.39292e-11
8.04041e-11
7.6379e-11
7.19613e-11
6.727e-11
6.24303e-11
5.75678e-11
5.28011e-11
4.82357e-11
4.39582e-11
4.00323e-11
3.64982e-11
3.33728e-11
3.06534e-11
2.83216e-11
2.63484e-11
6.73052e-11
6.68599e-11
6.59784e-11
6.46788e-11
6.29888e-11
6.09451e-11
5.85936e-11
5.59882e-11
5.31899e-11
5.02642e-11
4.72786e-11
4.42997e-11
4.13892e-11
3.86015e-11
3.59814e-11
3.35618e-11
3.13642e-11
2.9399e-11
2.76666e-11
2.61601e-11
5.32017e-11
5.29328e-11
5.23997e-11
5.16116e-11
5.05825e-11
4.93317e-11
4.78828e-11
4.62647e-11
4.45098e-11
4.26544e-11
4.07363e-11
3.87942e-11
3.68655e-11
3.49848e-11
3.31826e-11
3.14839e-11
2.99076e-11
2.84665e-11
2.71678e-11
2.60133e-11
4.45018e-11
4.43316e-11
4.39935e-11
4.34926e-11
4.28363e-11
4.20351e-11
4.1102e-11
4.00527e-11
3.89058e-11
3.76818e-11
3.6403e-11
3.50926e-11
3.3774e-11
3.24694e-11
3.11997e-11
2.99831e-11
2.88346e-11
2.77661e-11
2.67857e-11
2.58987e-11
3.88863e-11
3.87742e-11
3.85512e-11
3.82201e-11
3.77853e-11
3.72525e-11
3.66291e-11
3.59243e-11
3.5149e-11
3.43152e-11
3.34367e-11
3.25279e-11
3.16035e-11
3.06784e-11
2.97667e-11
2.88817e-11
2.80347e-11
2.72355e-11
2.64918e-11
2.58092e-11
3.51243e-11
3.5048e-11
3.48961e-11
3.46703e-11
3.4373e-11
3.40077e-11
3.35787e-11
3.30916e-11
3.2553e-11
3.19703e-11
3.13521e-11
3.07077e-11
3.00468e-11
2.93792e-11
2.87149e-11
2.80632e-11
2.74327e-11
2.68311e-11
2.62649e-11
2.57392e-11
3.2527e-11
3.24737e-11
3.23675e-11
3.22095e-11
3.20011e-11
3.17443e-11
3.14421e-11
3.10976e-11
3.07152e-11
3.02996e-11
2.98563e-11
2.93914e-11
2.89115e-11
2.84232e-11
2.79335e-11
2.74492e-11
2.69766e-11
2.65216e-11
2.60895e-11
2.56846e-11
3.06901e-11
3.0652e-11
3.05763e-11
3.04634e-11
3.03143e-11
3.01303e-11
2.99133e-11
2.96653e-11
2.93891e-11
2.90879e-11
2.87653e-11
2.84254e-11
2.80726e-11
2.77118e-11
2.73477e-11
2.69852e-11
2.66291e-11
2.62839e-11
2.59537e-11
2.56419e-11
2.93658e-11
2.93383e-11
2.92833e-11
2.92014e-11
2.9093e-11
2.89592e-11
2.88011e-11
2.862e-11
2.84179e-11
2.81969e-11
2.79594e-11
2.77083e-11
2.74466e-11
2.71778e-11
2.69054e-11
2.66327e-11
2.63635e-11
2.6101e-11
2.58485e-11
2.56087e-11
2.83969e-11
2.83767e-11
2.83363e-11
2.82761e-11
2.81964e-11
2.80979e-11
2.79814e-11
2.78478e-11
2.76984e-11
2.75346e-11
2.73583e-11
2.71713e-11
2.6976e-11
2.67746e-11
2.65698e-11
2.6364e-11
2.61599e-11
2.59601e-11
2.5767e-11
2.55829e-11
2.76798e-11
2.76647e-11
2.76348e-11
2.75901e-11
2.7531e-11
2.74579e-11
2.73713e-11
2.72719e-11
2.71606e-11
2.70385e-11
2.69067e-11
2.67668e-11
2.66202e-11
2.64687e-11
2.63142e-11
2.61586e-11
2.60037e-11
2.58516e-11
2.5704e-11
2.55628e-11
2.71444e-11
2.71331e-11
2.71108e-11
2.70774e-11
2.70333e-11
2.69786e-11
2.69139e-11
2.68395e-11
2.67562e-11
2.66646e-11
2.65657e-11
2.64606e-11
2.63502e-11
2.6236e-11
2.61192e-11
2.60013e-11
2.58838e-11
2.5768e-11
2.56553e-11
2.55472e-11
2.67421e-11
2.67337e-11
2.67169e-11
2.66919e-11
2.66588e-11
2.66177e-11
2.65691e-11
2.65133e-11
2.64506e-11
2.63818e-11
2.63073e-11
2.62281e-11
2.61449e-11
2.60586e-11
2.59703e-11
2.58809e-11
2.57917e-11
2.57036e-11
2.56178e-11
2.55351e-11
2.64386e-11
2.64323e-11
2.64196e-11
2.64008e-11
2.63758e-11
2.6345e-11
2.63083e-11
2.62663e-11
2.62191e-11
2.61672e-11
2.61111e-11
2.60513e-11
2.59884e-11
2.59232e-11
2.58564e-11
2.57887e-11
2.5721e-11
2.56541e-11
2.55888e-11
2.55258e-11
2.62089e-11
2.62041e-11
2.61946e-11
2.61804e-11
2.61616e-11
2.61383e-11
2.61107e-11
2.60789e-11
2.60433e-11
2.60042e-11
2.59618e-11
2.59167e-11
2.58692e-11
2.582e-11
2.57694e-11
2.57182e-11
2.56669e-11
2.56162e-11
2.55666e-11
2.55187e-11
2.60349e-11
2.60312e-11
2.60241e-11
2.60133e-11
2.59991e-11
2.59815e-11
2.59607e-11
2.59368e-11
2.59099e-11
2.58803e-11
2.58484e-11
2.58143e-11
2.57785e-11
2.57413e-11
2.57031e-11
2.56644e-11
2.56256e-11
2.55871e-11
2.55495e-11
2.55132e-11
2.5903e-11
2.59002e-11
2.58948e-11
2.58867e-11
2.5876e-11
2.58627e-11
2.5847e-11
2.58289e-11
2.58086e-11
2.57863e-11
2.57622e-11
2.57365e-11
2.57095e-11
2.56814e-11
2.56525e-11
2.56233e-11
2.5594e-11
2.55649e-11
2.55365e-11
2.5509e-11
2.58031e-11
2.5801e-11
2.57969e-11
2.57908e-11
2.57827e-11
2.57727e-11
2.57608e-11
2.57472e-11
2.57319e-11
2.57151e-11
2.56969e-11
2.56775e-11
2.56571e-11
2.56359e-11
2.56142e-11
2.55921e-11
2.557e-11
2.5548e-11
2.55266e-11
2.55058e-11
2.57277e-11
2.57261e-11
2.5723e-11
2.57184e-11
2.57123e-11
2.57047e-11
2.56958e-11
2.56855e-11
2.56739e-11
2.56612e-11
2.56475e-11
2.56329e-11
2.56175e-11
2.56015e-11
2.55851e-11
2.55685e-11
2.55518e-11
2.55353e-11
2.5519e-11
2.55033e-11
2.5671e-11
2.56699e-11
2.56675e-11
2.5664e-11
2.56594e-11
2.56536e-11
2.56468e-11
2.56391e-11
2.56303e-11
2.56207e-11
2.56104e-11
2.55993e-11
2.55877e-11
2.55756e-11
2.55633e-11
2.55507e-11
2.55381e-11
2.55256e-11
2.55134e-11
2.55015e-11
2.56288e-11
2.56279e-11
2.56261e-11
2.56234e-11
2.56199e-11
2.56155e-11
2.56104e-11
2.56045e-11
2.55978e-11
2.55905e-11
2.55827e-11
2.55743e-11
2.55655e-11
2.55563e-11
2.55469e-11
2.55374e-11
2.55279e-11
2.55184e-11
2.55091e-11
2.55001e-11
2.55976e-11
2.5597e-11
2.55956e-11
2.55935e-11
2.55908e-11
2.55875e-11
2.55835e-11
2.5579e-11
2.55739e-11
2.55683e-11
2.55623e-11
2.55559e-11
2.55491e-11
2.55421e-11
2.55349e-11
2.55277e-11
2.55204e-11
2.55131e-11
2.5506e-11
2.54991e-11
2.55753e-11
2.55747e-11
2.55736e-11
2.5572e-11
2.55699e-11
2.55673e-11
2.55642e-11
2.55607e-11
2.55567e-11
2.55523e-11
2.55476e-11
2.55426e-11
2.55374e-11
2.55319e-11
2.55263e-11
2.55206e-11
2.55149e-11
2.55093e-11
2.55038e-11
2.54984e-11
2.55599e-11
2.55594e-11
2.55586e-11
2.55573e-11
2.55555e-11
2.55534e-11
2.55509e-11
2.55481e-11
2.55449e-11
2.55413e-11
2.55375e-11
2.55335e-11
2.55293e-11
2.55249e-11
2.55204e-11
2.55158e-11
2.55112e-11
2.55067e-11
2.55022e-11
2.54979e-11
2.55502e-11
2.55499e-11
2.55491e-11
2.5548e-11
2.55466e-11
2.55448e-11
2.55426e-11
2.55402e-11
2.55375e-11
2.55345e-11
2.55312e-11
2.55278e-11
2.55242e-11
2.55205e-11
2.55166e-11
2.55128e-11
2.55089e-11
2.5505e-11
2.55013e-11
2.54976e-11
2.55456e-11
2.55453e-11
2.55446e-11
2.55436e-11
2.55422e-11
2.55406e-11
2.55386e-11
2.55364e-11
2.55339e-11
2.55312e-11
2.55282e-11
2.55251e-11
2.55218e-11
2.55184e-11
2.55149e-11
2.55113e-11
2.55078e-11
2.55042e-11
2.55008e-11
2.54974e-11
)
;

boundaryField
{
    topWall
    {
        type            zeroGradient;
    }
    bottomWall
    {
        type            zeroGradient;
    }
    sideWallL
    {
        type            symmetry;
    }
    sideWallR
    {
        type            zeroGradient;
    }
    frontAndBack
    {
        type            empty;
    }
}


// ************************************************************************* //
