/*--------------------------------*- C++ -*----------------------------------*\
  =========                 |
  \\      /  F ield         | OpenFOAM: The Open Source CFD Toolbox
   \\    /   O peration     | Website:  https://openfoam.org
    \\  /    A nd           | Version:  7
     \\/     M anipulation  |
\*---------------------------------------------------------------------------*/
FoamFile
{
    version     2.0;
    format      ascii;
    class       volScalarField;
    location    "40";
    object      rhot1;
}
// * * * * * * * * * * * * * * * * * * * * * * * * * * * * * * * * * * * * * //

dimensions      [1 -3 0 0 0 0 0];

internalField   nonuniform List<scalar> 
900
(
7.26045
7.25401
7.2408
7.22011
7.19081
7.15125
7.09909
7.0311
6.94277
6.82785
6.67752
6.47933
6.21536
5.85928
5.37046
4.6794
3.65234
2.0852
0.367415
0.000176213
1.23097
1.22383
1.20932
1.18698
1.15615
1.11595
1.06529
1.00299
0.927816
0.838713
0.735132
0.617602
0.4886
0.353769
0.223242
0.11208
0.0370428
0.00513029
8.22757e-05
1.98131e-09
0.136539
0.135293
0.132772
0.128915
0.123642
0.116859
0.108475
0.0984325
0.0867467
0.0735649
0.059244
0.0444338
0.0301309
0.0176276
0.00823199
0.00267724
0.00046973
2.66484e-05
1.64413e-07
1.2229e-11
0.0153127
0.0151109
0.0147049
0.0140911
0.0132658
0.0122282
0.0109845
0.00955267
0.00796978
0.00629832
0.00463069
0.00308622
0.00179427
0.000858328
0.000308261
7.16415e-05
8.40899e-06
3.27726e-07
2.14418e-09
1.09544e-12
0.00167923
0.00164985
0.0015912
0.00150366
0.00138818
0.00124668
0.00108266
0.000901777
0.000712404
0.000525659
0.000354643
0.000212331
0.000108109
4.40067e-05
1.30768e-05
2.47825e-06
2.45273e-07
9.54451e-09
1.03619e-10
2.9495e-13
0.000182327
0.000178363
0.000170512
0.000158949
0.000143982
0.00012611
0.000106069
8.48746e-05
6.38083e-05
4.43164e-05
2.77941e-05
1.52619e-05
7.03318e-06
2.56645e-06
6.84674e-07
1.19853e-07
1.19601e-08
5.7759e-10
1.19094e-11
1.33106e-13
2.00373e-05
1.95237e-05
1.8514e-05
1.70453e-05
1.51783e-05
1.30016e-05
1.06341e-05
8.22316e-06
5.93383e-06
3.9277e-06
2.3317e-06
1.20541e-06
5.22144e-07
1.80277e-07
4.65544e-08
8.31834e-09
9.42504e-10
6.27278e-11
2.44997e-12
7.9286e-14
2.28565e-06
2.21951e-06
2.09033e-06
1.90453e-06
1.67205e-06
1.40659e-06
1.12529e-06
8.47682e-07
5.93625e-07
3.80174e-07
2.18074e-07
1.09141e-07
4.61297e-08
1.58252e-08
4.20652e-09
8.23772e-10
1.13527e-10
1.07967e-11
7.56354e-13
5.56825e-14
2.77719e-07
2.68978e-07
2.52001e-07
2.27804e-07
1.9792e-07
1.64361e-07
1.29512e-07
9.5926e-08
6.59953e-08
4.15537e-08
2.35147e-08
1.17001e-08
4.98835e-09
1.76994e-09
5.06718e-10
1.13782e-10
1.97096e-11
2.67401e-12
3.13203e-13
4.34112e-14
3.68462e-08
3.56257e-08
3.32652e-08
2.99241e-08
2.58367e-08
2.13007e-08
1.66558e-08
1.22473e-08
8.38024e-09
5.26862e-09
2.9981e-09
1.5178e-09
6.70689e-10
2.53614e-10
8.05923e-11
2.12659e-11
4.67278e-12
8.85685e-13
1.61319e-13
3.62753e-14
5.45772e-09
5.27304e-09
4.91684e-09
4.4149e-09
3.80444e-09
3.13171e-09
2.44794e-09
1.8036e-09
1.24149e-09
7.90149e-10
4.59562e-10
2.41161e-10
1.12702e-10
4.63488e-11
1.66343e-11
5.2075e-12
1.44374e-12
3.70967e-13
9.79291e-14
3.17918e-14
9.19342e-10
8.88418e-10
8.28849e-10
7.45077e-10
6.43436e-10
5.31679e-10
4.18249e-10
3.11316e-10
2.17695e-10
1.41868e-10
8.54195e-11
4.71043e-11
2.3601e-11
1.06823e-11
4.36269e-12
1.61946e-12
5.58722e-13
1.87996e-13
6.73011e-14
2.88145e-14
1.78601e-10
1.72779e-10
1.61563e-10
1.45787e-10
1.2663e-10
1.05526e-10
8.40227e-11
6.36131e-11
4.55444e-11
3.06558e-11
1.92848e-11
1.12773e-11
6.10622e-12
3.05803e-12
1.42199e-12
6.21441e-13
2.61788e-13
1.11145e-13
5.07775e-14
2.67555e-14
4.03924e-11
3.91466e-11
3.67441e-11
3.33575e-11
2.92307e-11
2.46596e-11
1.99641e-11
1.54543e-11
1.13942e-11
7.96941e-12
5.26892e-12
3.28416e-12
1.92833e-12
1.06898e-12
5.63502e-13
2.86571e-13
1.44107e-13
7.43173e-14
4.10831e-14
2.52878e-14
1.06874e-11
1.03827e-11
9.79407e-12
8.96124e-12
7.94069e-12
6.80106e-12
5.61712e-12
4.46234e-12
3.40096e-12
2.48093e-12
1.72927e-12
1.15115e-12
7.32908e-13
4.48287e-13
2.65738e-13
1.54891e-13
9.06635e-14
5.47315e-14
3.5018e-14
2.42172e-14
3.31205e-12
3.22685e-12
3.06175e-12
2.82706e-12
2.53744e-12
2.21081e-12
1.86689e-12
1.52549e-12
1.20445e-12
9.17935e-13
6.7512e-13
4.79674e-13
3.30197e-13
2.21441e-13
1.45964e-13
9.57672e-14
6.35555e-14
4.34238e-14
3.10306e-14
2.34225e-14
1.20002e-12
1.17284e-12
1.12002e-12
1.04453e-12
9.50624e-13
8.43551e-13
7.29175e-13
6.13499e-13
5.02135e-13
3.99797e-13
3.09895e-13
2.34316e-13
1.73439e-13
1.26374e-13
9.13461e-14
6.61475e-14
4.85249e-14
3.64593e-14
2.83066e-14
2.28246e-14
5.06204e-13
4.96384e-13
4.77235e-13
4.49711e-13
4.15187e-13
3.75376e-13
3.32224e-13
2.87764e-13
2.43966e-13
2.02571e-13
1.64957e-13
1.32043e-13
1.04265e-13
8.16049e-14
6.36917e-14
4.99193e-14
3.95752e-14
3.19459e-14
2.63892e-14
2.23701e-14
2.46969e-13
2.42985e-13
2.3519e-13
2.23924e-13
2.09675e-13
1.93063e-13
1.748e-13
1.55649e-13
1.36372e-13
1.17673e-13
1.00153e-13
8.42647e-14
7.02939e-14
5.83587e-14
4.84289e-14
4.03602e-14
3.39349e-14
2.89015e-14
2.50077e-14
2.20218e-14
1.37999e-13
1.36204e-13
1.3268e-13
1.2756e-13
1.21035e-13
1.13349e-13
1.04787e-13
9.56621e-14
8.62958e-14
7.69978e-14
6.80468e-14
5.96734e-14
5.20474e-14
4.52736e-14
3.93931e-14
3.43925e-14
3.02165e-14
2.67825e-14
2.39942e-14
2.17534e-14
8.71085e-14
8.62208e-14
8.44735e-14
8.19217e-14
7.86466e-14
7.47526e-14
7.03639e-14
6.5619e-14
6.0664e-14
5.5645e-14
5.06998e-14
4.59498e-14
4.14946e-14
3.7407e-14
3.37324e-14
3.049e-14
2.76763e-14
2.52706e-14
2.32401e-14
2.15456e-14
6.10542e-14
6.05783e-14
5.96391e-14
5.82615e-14
5.64823e-14
5.43497e-14
5.19214e-14
4.92633e-14
4.64464e-14
4.35439e-14
4.06275e-14
3.77641e-14
3.50122e-14
3.24196e-14
3.00219e-14
2.78422e-14
2.58916e-14
2.4171e-14
2.26729e-14
2.13842e-14
4.66249e-14
4.63516e-14
4.58109e-14
4.50148e-14
4.39813e-14
4.27339e-14
4.13011e-14
3.97163e-14
3.8016e-14
3.62389e-14
3.44242e-14
3.26102e-14
3.08318e-14
2.91202e-14
2.75007e-14
2.59929e-14
2.46098e-14
2.3359e-14
2.22426e-14
2.12586e-14
3.80894e-14
3.79231e-14
3.75934e-14
3.71066e-14
3.64717e-14
3.5701e-14
3.48094e-14
3.38147e-14
3.27366e-14
3.15966e-14
3.04172e-14
2.92209e-14
2.80293e-14
2.68625e-14
2.57382e-14
2.46713e-14
2.36733e-14
2.27525e-14
2.19142e-14
2.11608e-14
3.27584e-14
3.26523e-14
3.24416e-14
3.21296e-14
3.17213e-14
3.12232e-14
3.06438e-14
2.99927e-14
2.92813e-14
2.8522e-14
2.77282e-14
2.69135e-14
2.60916e-14
2.52758e-14
2.44782e-14
2.37098e-14
2.29797e-14
2.22954e-14
2.16624e-14
2.10845e-14
2.92784e-14
2.9208e-14
2.9068e-14
2.88603e-14
2.85878e-14
2.82541e-14
2.7864e-14
2.74233e-14
2.69386e-14
2.64174e-14
2.5868e-14
2.52989e-14
2.4719e-14
2.41371e-14
2.35616e-14
2.30006e-14
2.24608e-14
2.19486e-14
2.14687e-14
2.1025e-14
2.69245e-14
2.68763e-14
2.67804e-14
2.66379e-14
2.64505e-14
2.62203e-14
2.59503e-14
2.56439e-14
2.53051e-14
2.49388e-14
2.45501e-14
2.41445e-14
2.37279e-14
2.33064e-14
2.28858e-14
2.24718e-14
2.20696e-14
2.16841e-14
2.13193e-14
2.09786e-14
2.52868e-14
2.52529e-14
2.51856e-14
2.50855e-14
2.49535e-14
2.47911e-14
2.46e-14
2.43824e-14
2.41409e-14
2.38785e-14
2.35987e-14
2.33052e-14
2.30018e-14
2.26928e-14
2.23823e-14
2.20744e-14
2.1773e-14
2.14818e-14
2.1204e-14
2.09425e-14
2.41217e-14
2.40975e-14
2.40493e-14
2.39776e-14
2.38829e-14
2.37662e-14
2.36286e-14
2.34716e-14
2.32967e-14
2.31061e-14
2.29021e-14
2.26871e-14
2.24638e-14
2.22353e-14
2.20043e-14
2.1774e-14
2.15472e-14
2.13267e-14
2.1115e-14
2.09144e-14
2.32784e-14
2.32608e-14
2.32258e-14
2.31737e-14
2.31048e-14
2.30198e-14
2.29194e-14
2.28046e-14
2.26766e-14
2.25366e-14
2.23863e-14
2.22274e-14
2.20618e-14
2.18916e-14
2.17189e-14
2.15459e-14
2.13748e-14
2.12076e-14
2.10463e-14
2.08926e-14
2.26598e-14
2.26469e-14
2.26212e-14
2.25829e-14
2.25323e-14
2.24697e-14
2.23958e-14
2.23111e-14
2.22164e-14
2.21128e-14
2.20012e-14
2.1883e-14
2.17595e-14
2.16322e-14
2.15026e-14
2.13723e-14
2.12429e-14
2.11161e-14
2.09932e-14
2.08758e-14
2.22016e-14
2.2192e-14
2.2173e-14
2.21446e-14
2.21071e-14
2.20607e-14
2.20058e-14
2.19429e-14
2.18725e-14
2.17953e-14
2.17121e-14
2.16237e-14
2.15312e-14
2.14357e-14
2.13382e-14
2.12399e-14
2.11421e-14
2.10458e-14
2.09524e-14
2.08627e-14
2.18596e-14
2.18525e-14
2.18383e-14
2.18172e-14
2.17892e-14
2.17546e-14
2.17136e-14
2.16667e-14
2.16141e-14
2.15563e-14
2.1494e-14
2.14278e-14
2.13584e-14
2.12865e-14
2.12131e-14
2.11389e-14
2.10649e-14
2.0992e-14
2.09209e-14
2.08526e-14
2.16031e-14
2.15978e-14
2.15872e-14
2.15714e-14
2.15504e-14
2.15245e-14
2.14939e-14
2.14587e-14
2.14192e-14
2.13759e-14
2.13292e-14
2.12795e-14
2.12273e-14
2.11732e-14
2.11178e-14
2.10618e-14
2.10059e-14
2.09507e-14
2.08968e-14
2.08449e-14
2.14101e-14
2.14061e-14
2.13981e-14
2.13863e-14
2.13705e-14
2.13511e-14
2.13281e-14
2.13017e-14
2.12721e-14
2.12396e-14
2.12044e-14
2.1167e-14
2.11278e-14
2.10871e-14
2.10453e-14
2.10031e-14
2.09609e-14
2.09191e-14
2.08783e-14
2.08389e-14
2.12646e-14
2.12616e-14
2.12556e-14
2.12467e-14
2.12349e-14
2.12203e-14
2.1203e-14
2.11831e-14
2.11609e-14
2.11364e-14
2.111e-14
2.10819e-14
2.10523e-14
2.10217e-14
2.09903e-14
2.09584e-14
2.09266e-14
2.0895e-14
2.08642e-14
2.08344e-14
2.11549e-14
2.11526e-14
2.11481e-14
2.11414e-14
2.11325e-14
2.11216e-14
2.11085e-14
2.10936e-14
2.10769e-14
2.10585e-14
2.10386e-14
2.10175e-14
2.09952e-14
2.09722e-14
2.09485e-14
2.09245e-14
2.09005e-14
2.08767e-14
2.08534e-14
2.08309e-14
2.10724e-14
2.10707e-14
2.10673e-14
2.10622e-14
2.10555e-14
2.10472e-14
2.10374e-14
2.10262e-14
2.10136e-14
2.09997e-14
2.09848e-14
2.09689e-14
2.09521e-14
2.09347e-14
2.09169e-14
2.08989e-14
2.08808e-14
2.08628e-14
2.08453e-14
2.08283e-14
2.10105e-14
2.10092e-14
2.10066e-14
2.10028e-14
2.09978e-14
2.09915e-14
2.09841e-14
2.09756e-14
2.09661e-14
2.09557e-14
2.09444e-14
2.09324e-14
2.09197e-14
2.09066e-14
2.08932e-14
2.08796e-14
2.08659e-14
2.08524e-14
2.08391e-14
2.08263e-14
2.09644e-14
2.09635e-14
2.09615e-14
2.09586e-14
2.09548e-14
2.095e-14
2.09444e-14
2.0938e-14
2.09308e-14
2.09228e-14
2.09143e-14
2.09052e-14
2.08956e-14
2.08857e-14
2.08755e-14
2.08652e-14
2.08548e-14
2.08446e-14
2.08345e-14
2.08248e-14
2.09306e-14
2.09298e-14
2.09283e-14
2.09261e-14
2.09232e-14
2.09195e-14
2.09152e-14
2.09103e-14
2.09048e-14
2.08987e-14
2.08921e-14
2.08852e-14
2.08779e-14
2.08703e-14
2.08625e-14
2.08546e-14
2.08467e-14
2.08388e-14
2.08311e-14
2.08237e-14
2.09062e-14
2.09057e-14
2.09045e-14
2.09027e-14
2.09004e-14
2.08976e-14
2.08942e-14
2.08904e-14
2.08861e-14
2.08813e-14
2.08762e-14
2.08708e-14
2.08651e-14
2.08592e-14
2.08531e-14
2.0847e-14
2.08408e-14
2.08347e-14
2.08287e-14
2.08229e-14
2.08895e-14
2.0889e-14
2.08881e-14
2.08867e-14
2.08848e-14
2.08825e-14
2.08798e-14
2.08767e-14
2.08732e-14
2.08694e-14
2.08653e-14
2.08609e-14
2.08563e-14
2.08516e-14
2.08467e-14
2.08417e-14
2.08368e-14
2.08319e-14
2.0827e-14
2.08224e-14
2.08791e-14
2.08787e-14
2.08779e-14
2.08767e-14
2.08751e-14
2.08731e-14
2.08708e-14
2.08682e-14
2.08652e-14
2.0862e-14
2.08585e-14
2.08548e-14
2.08509e-14
2.08468e-14
2.08427e-14
2.08385e-14
2.08343e-14
2.08301e-14
2.0826e-14
2.0822e-14
2.0874e-14
2.08737e-14
2.08729e-14
2.08718e-14
2.08704e-14
2.08686e-14
2.08665e-14
2.08641e-14
2.08614e-14
2.08584e-14
2.08552e-14
2.08518e-14
2.08482e-14
2.08445e-14
2.08407e-14
2.08369e-14
2.0833e-14
2.08292e-14
2.08255e-14
2.08219e-14
)
;

boundaryField
{
    topWall
    {
        type            zeroGradient;
    }
    bottomWall
    {
        type            zeroGradient;
    }
    sideWallL
    {
        type            symmetry;
    }
    sideWallR
    {
        type            calculated;
        value           uniform 0;
    }
    frontAndBack
    {
        type            empty;
    }
}


// ************************************************************************* //
