/*--------------------------------*- C++ -*----------------------------------*\
  =========                 |
  \\      /  F ield         | OpenFOAM: The Open Source CFD Toolbox
   \\    /   O peration     | Website:  https://openfoam.org
    \\  /    A nd           | Version:  7
     \\/     M anipulation  |
\*---------------------------------------------------------------------------*/
FoamFile
{
    version     2.0;
    format      ascii;
    class       volScalarField;
    location    "40";
    object      T;
}
// * * * * * * * * * * * * * * * * * * * * * * * * * * * * * * * * * * * * * //

dimensions      [0 0 0 1 0 0 0];

internalField   nonuniform List<scalar> 
900
(
643.953
643.799
643.488
643.009
642.347
641.483
640.389
639.031
637.366
635.341
632.889
629.925
626.344
622.008
616.724
610.14
601.358
587.241
555.063
448.145
587.86
587.626
587.151
586.423
585.42
584.114
582.467
580.427
577.925
574.869
571.129
566.523
560.785
553.508
544.048
531.301
513.193
485.328
437.069
345.136
541.55
541.357
540.962
540.348
539.487
538.339
536.85
534.944
532.521
529.446
525.529
520.51
514.011
505.476
494.061
478.441
456.491
424.788
378.228
312.053
506.947
506.731
506.29
505.603
504.637
503.343
501.658
499.493
496.729
493.208
488.715
482.957
475.532
465.88
453.217
436.45
414.102
384.353
345.551
298.047
477.138
476.893
476.393
475.614
474.521
473.062
471.167
468.741
465.662
461.766
456.839
450.601
442.684
432.609
419.766
403.401
382.674
356.84
325.732
290.658
450.718
450.45
449.902
449.051
447.86
446.277
444.231
441.629
438.354
434.25
429.123
422.73
414.766
404.863
392.597
377.512
359.209
337.509
312.747
286.128
427.177
426.894
426.316
425.421
424.172
422.52
420.397
417.719
414.376
410.232
405.124
398.851
391.181
381.854
370.599
357.176
341.443
323.476
303.712
283.074
406.229
405.94
405.35
404.438
403.172
401.505
399.376
396.711
393.414
389.372
384.452
378.501
371.352
362.831
352.783
341.102
327.784
312.996
297.141
280.888
387.66
387.373
386.787
385.885
384.636
383.001
380.926
378.346
375.185
371.35
366.739
361.239
354.735
347.123
338.322
328.305
317.133
304.988
292.203
279.26
371.28
371.001
370.434
369.562
368.36
366.793
364.817
362.379
359.416
355.859
351.629
346.649
340.844
334.155
326.55
318.046
308.725
298.756
288.403
278.014
356.905
356.64
356.101
355.276
354.142
352.671
350.827
348.567
345.844
342.603
338.791
334.355
329.249
323.445
316.941
309.772
302.023
293.841
285.429
277.042
344.356
344.108
343.606
342.838
341.787
340.43
338.738
336.678
334.214
331.308
327.922
324.021
319.582
314.596
309.075
303.063
296.638
289.921
283.07
276.272
333.455
333.227
332.766
332.063
331.103
329.87
328.34
326.489
324.291
321.718
318.745
315.353
311.531
307.28
302.622
297.601
292.284
286.771
281.182
275.657
324.031
323.824
323.407
322.772
321.908
320.802
319.436
317.794
315.855
313.602
311.018
308.095
304.829
301.23
297.32
293.139
288.748
284.223
279.66
275.162
315.922
315.737
315.364
314.797
314.029
313.048
311.843
310.401
308.708
306.753
304.528
302.029
299.257
296.225
292.957
289.487
285.866
282.154
278.426
274.761
308.976
308.812
308.482
307.982
307.305
306.445
305.392
304.137
302.673
300.991
299.089
296.966
294.627
292.086
289.364
286.492
283.51
280.469
277.423
274.435
303.05
302.906
302.617
302.18
301.59
300.842
299.93
298.848
297.591
296.156
294.54
292.748
290.785
288.664
286.405
284.033
281.582
279.092
276.605
274.169
298.015
297.891
297.64
297.261
296.751
296.106
295.323
294.397
293.326
292.108
290.745
289.239
287.599
285.836
283.967
282.013
280.003
277.966
275.937
273.952
293.755
293.647
293.431
293.106
292.668
292.117
291.448
290.662
289.755
288.728
287.584
286.326
284.961
283.501
281.959
280.354
278.707
277.044
275.391
273.775
290.162
290.07
289.886
289.608
289.236
288.767
288.201
287.537
286.774
285.913
284.957
283.911
282.78
281.575
280.307
278.991
277.646
276.289
274.944
273.63
287.145
287.067
286.91
286.675
286.36
285.965
285.489
284.931
284.292
283.574
282.78
281.913
280.98
279.988
278.948
277.873
276.775
275.672
274.578
273.511
284.619
284.554
284.422
284.224
283.959
283.628
283.229
282.764
282.232
281.636
280.979
280.263
279.496
278.683
277.833
276.956
276.063
275.166
274.279
273.414
282.514
282.458
282.348
282.183
281.961
281.685
281.353
280.966
280.526
280.034
279.492
278.905
278.276
277.611
276.918
276.205
275.48
274.753
274.035
273.335
280.764
280.718
280.626
280.488
280.305
280.075
279.8
279.481
279.118
278.713
278.269
277.788
277.274
276.733
276.17
275.591
275.004
274.416
273.835
273.271
279.315
279.277
279.201
279.087
278.935
278.746
278.519
278.256
277.959
277.627
277.264
276.872
276.454
276.014
275.558
275.089
274.615
274.141
273.673
273.218
278.119
278.088
278.025
277.931
277.806
277.651
277.465
277.25
277.007
276.736
276.441
276.122
275.783
275.428
275.059
274.681
274.299
273.917
273.541
273.175
277.136
277.11
277.059
276.982
276.88
276.753
276.601
276.426
276.228
276.008
275.769
275.511
275.237
274.95
274.653
274.349
274.042
273.736
273.434
273.141
276.33
276.309
276.267
276.205
276.122
276.018
275.895
275.753
275.593
275.415
275.221
275.013
274.793
274.562
274.323
274.08
273.834
273.588
273.347
273.112
275.673
275.656
275.622
275.571
275.504
275.42
275.32
275.205
275.076
274.933
274.777
274.61
274.433
274.248
274.057
273.862
273.665
273.469
273.277
273.09
275.138
275.124
275.096
275.055
275.001
274.934
274.853
274.761
274.657
274.542
274.417
274.283
274.141
273.994
273.841
273.686
273.529
273.373
273.22
273.071
274.704
274.693
274.671
274.638
274.594
274.54
274.476
274.401
274.318
274.226
274.126
274.019
273.907
273.789
273.668
273.544
273.42
273.296
273.175
273.057
274.353
274.345
274.327
274.301
274.266
274.222
274.171
274.112
274.045
273.972
273.893
273.808
273.718
273.625
273.528
273.431
273.332
273.234
273.138
273.045
274.072
274.065
274.05
274.029
274.002
273.967
273.926
273.879
273.826
273.768
273.705
273.638
273.567
273.493
273.417
273.34
273.262
273.185
273.109
273.035
273.846
273.84
273.829
273.812
273.79
273.763
273.73
273.693
273.651
273.605
273.555
273.502
273.446
273.388
273.328
273.267
273.206
273.145
273.086
273.028
273.665
273.661
273.652
273.639
273.621
273.6
273.574
273.545
273.512
273.475
273.436
273.394
273.35
273.304
273.257
273.21
273.162
273.114
273.067
273.022
273.522
273.519
273.512
273.501
273.487
273.47
273.45
273.427
273.401
273.372
273.342
273.309
273.274
273.238
273.201
273.164
273.126
273.089
273.052
273.017
273.409
273.406
273.401
273.392
273.381
273.368
273.352
273.334
273.314
273.291
273.267
273.241
273.214
273.186
273.157
273.128
273.099
273.07
273.041
273.013
273.32
273.318
273.313
273.307
273.298
273.288
273.275
273.261
273.245
273.228
273.209
273.188
273.167
273.145
273.123
273.1
273.077
273.054
273.032
273.01
273.25
273.249
273.245
273.24
273.234
273.225
273.215
273.204
273.192
273.178
273.163
273.147
273.131
273.114
273.096
273.078
273.06
273.042
273.025
273.008
273.197
273.196
273.193
273.189
273.184
273.177
273.169
273.16
273.151
273.14
273.128
273.116
273.103
273.089
273.075
273.061
273.047
273.033
273.02
273.006
273.156
273.155
273.153
273.15
273.146
273.141
273.134
273.127
273.119
273.111
273.102
273.092
273.081
273.071
273.06
273.049
273.037
273.026
273.016
273.005
273.126
273.126
273.124
273.121
273.118
273.114
273.109
273.103
273.097
273.09
273.082
273.074
273.066
273.057
273.048
273.039
273.03
273.021
273.013
273.004
273.105
273.105
273.103
273.101
273.098
273.095
273.09
273.086
273.08
273.075
273.068
273.062
273.055
273.048
273.04
273.033
273.025
273.018
273.01
273.003
273.092
273.091
273.09
273.088
273.086
273.083
273.079
273.075
273.07
273.065
273.06
273.054
273.048
273.041
273.035
273.028
273.022
273.015
273.009
273.003
273.086
273.085
273.084
273.082
273.08
273.077
273.073
273.07
273.065
273.06
273.055
273.05
273.044
273.038
273.033
273.026
273.02
273.014
273.008
273.003
)
;

boundaryField
{
    topWall
    {
        type            zeroGradient;
    }
    bottomWall
    {
        type            codedFixedValue;
        value           uniform 673;
        name            heating;
        code            #{
            const scalar t = this->db().time().value();
            const scalar Ttemp = 273 + 10*t;
            operator==(Ttemp);
        #};
    }
    sideWallL
    {
        type            symmetry;
    }
    sideWallR
    {
        type            fixedValue;
        value           uniform 273;
    }
    frontAndBack
    {
        type            empty;
    }
}


// ************************************************************************* //
