/*--------------------------------*- C++ -*----------------------------------*\
  =========                 |
  \\      /  F ield         | OpenFOAM: The Open Source CFD Toolbox
   \\    /   O peration     | Website:  https://openfoam.org
    \\  /    A nd           | Version:  7
     \\/     M anipulation  |
\*---------------------------------------------------------------------------*/
FoamFile
{
    version     2.0;
    format      ascii;
    class       volScalarField;
    location    "33";
    object      gradTy;
}
// * * * * * * * * * * * * * * * * * * * * * * * * * * * * * * * * * * * * * //

dimensions      [0 -1 0 1 0 0 0];

internalField   nonuniform List<scalar> 
900
(
-233622
-233852
-234325
-235069
-236130
-237576
-239501
-242040
-245381
-249792
-255663
-263574
-274421
-289657
-311774
-345402
-399976
-496854
-689679
-1.12305e+06
-192857
-193065
-193493
-194165
-195123
-196422
-198146
-200406
-203361
-207226
-212310
-219046
-228064
-240279
-257008
-280012
-310995
-348426
-372787
-286383
-165355
-165537
-165908
-166490
-167313
-168422
-169878
-171763
-174185
-177284
-181243
-186285
-192675
-200664
-210335
-221119
-230487
-230600
-201163
-101545
-146397
-146546
-146849
-147320
-147980
-148857
-149989
-151421
-153208
-155408
-158075
-161233
-164833
-168633
-171978
-173335
-169440
-153991
-116730
-47046.1
-129318
-129428
-129652
-129997
-130473
-131091
-131867
-132811
-133929
-135209
-136607
-138008
-139175
-139641
-138539
-134340
-124541
-105506
-73223.5
-26482.5
-113664
-113735
-113880
-114098
-114390
-114754
-115185
-115667
-116169
-116632
-116950
-116938
-116288
-114497
-110779
-103967
-92485.1
-74568.7
-49029.4
-16868.7
-99417.7
-99453.3
-99522.7
-99622.3
-99745
-99878.6
-100003
-100083
-100067
-99868.4
-99354.6
-98323.3
-96471.8
-93362
-88387.7
-80770.8
-69635.8
-54248.4
-34500.9
-11590.5
-86551.5
-86554.8
-86557.9
-86553.8
-86530.1
-86467.6
-86336.9
-86094.1
-85674.7
-84984.9
-83890.3
-82201.8
-79660.8
-75926.3
-70575.7
-63134.8
-53165
-40435.3
-25180.7
-8355.59
-75008
-74984.2
-74932.1
-74842.6
-74700.1
-74481.7
-74153.9
-73669.3
-72961.9
-71941.3
-70485.7
-68434.9
-65585.6
-61691.8
-56478.5
-49678
-41098.8
-30732
-18876.1
-6219.68
-64713.3
-64668.2
-64573
-64417.6
-64185.3
-63852
-63383.7
-62734.3
-61842.4
-60627.4
-58986.9
-56793.8
-53897.2
-50129.3
-45321.4
-39334.6
-32107.5
-23716.2
-14430.8
-4734.34
-55584.1
-55523.5
-55397.2
-55194.9
-54900.4
-54490.2
-53932.5
-53185.4
-52194.9
-50893.6
-49199.6
-47016.5
-44237.7
-40753.7
-36467.1
-31315
-25299.4
-18519.2
-11193.9
-3661.91
-47532.5
-47461.7
-47315.3
-47083.6
-46751.4
-46297.5
-45693.4
-44903
-43881.1
-42573.6
-40917.4
-38842.5
-36276.1
-33150.1
-29412.4
-25042.8
-20070.6
-14591.9
-8777.45
-2865.67
-40468.8
-40392.5
-40235.6
-39989.3
-39640.2
-39169.6
-38553.4
-37761.5
-36757.6
-35499.4
-33940.2
-32030.6
-29722.7
-26976.3
-23767.3
-20097.6
-16006
-11575.9
-6937.89
-2261.8
-34304.3
-34226.3
-34066.6
-33817.7
-33468
-33001.9
-32399.4
-31636.2
-30683.9
-29510.8
-28082.9
-26366.5
-24331.5
-21955.8
-19231.5
-16171.3
-12814.2
-9229.46
-5516.06
-1796.31
-28951.9
-28875.4
-28719.1
-28476.7
-28138.7
-27692.4
-27121.5
-26407.2
-25527.9
-24460
-23179.8
-21665
-19897.4
-17866.5
-15573.6
-13035.2
-10287.1
-7385.03
-4403.96
-1432.93
-24328.4
-24255.4
-24106.9
-23877.7
-23560
-23143.8
-22616.3
-21963.1
-21168
-20214.4
-19085.8
-17768
-16251
-14531.3
-12614.6
-10518.3
-8273.07
-5923.41
-3526.08
-1146.52
-20354.4
-20286.6
-20148.8
-19937.1
-19645.2
-19265.2
-18787.6
-18201.4
-17495
-16656.5
-15675.2
-14542.4
-13253.3
-11808.4
-10215.4
-8490.57
-6659.73
-4757.89
-2828.17
-919.081
-16955.7
-16893.9
-16768.6
-16576.8
-16313.6
-15972.9
-15547.7
-15030
-14411.3
-13683.7
-12840.3
-11876.3
-10789.9
-9583.97
-8266.65
-6852.4
-5362.37
-3824.09
-2270.38
-737.476
-14063.1
-14007.8
-13895.9
-13724.9
-13491.3
-13190.7
-12817.6
-12366.4
-11831.3
-11207
-10489.3
-9675.96
-8767.14
-7766.61
-6682.2
-5526.37
-4316.25
-3073.39
-1822.86
-591.879
-11613.4
-11564.6
-11466
-11315.9
-11111.5
-10849.6
-10526.4
-10137.8
-9679.96
-9149.56
-8544.25
-7863.24
-7107.9
-6282.25
-5393.39
-4451.77
-3471.19
-2468.49
-1462.84
-474.825
-9548.64
-9506.15
-9420.49
-9290.3
-9113.67
-8888.22
-8611.27
-8280.11
-7892.19
-7445.51
-6938.97
-6372.75
-5748.72
-5070.79
-4345.18
-3580.54
-2787.91
-1980.4
-1172.75
-380.554
-7816.74
-7780.19
-7706.6
-7595
-7444.02
-7251.99
-7017.08
-6737.5
-6411.66
-6038.48
-5617.64
-5149.86
-4637.18
-4083.2
-3493.22
-2874.32
-2235.29
-1586.35
-938.817
-304.566
-6370.96
-6339.86
-6277.31
-6182.62
-6054.85
-5892.85
-5695.42
-5461.39
-5189.88
-4880.4
-4533.09
-4148.94
-3729.97
-3279.35
-2801.54
-2302.28
-1788.53
-1268.26
-750.161
-243.309
-5169.77
-5143.57
-5090.91
-5011.34
-4904.19
-4768.73
-4604.17
-4409.84
-4185.27
-3930.36
-3645.53
-3331.85
-2991.19
-2626.29
-2240.85
-1839.49
-1427.69
-1011.66
-598.108
-193.954
-4176.55
-4154.66
-4110.73
-4044.43
-3955.35
-3843
-3706.92
-3546.73
-3362.27
-3153.66
-2921.46
-2666.72
-2391.1
-2096.92
-1787.22
-1465.69
-1136.66
-804.937
-475.693
-154.23
-3359.17
-3341.05
-3304.7
-3249.91
-3176.43
-3083.96
-2972.25
-2841.12
-2690.6
-2520.94
-2332.72
-2126.93
-1905.01
-1668.89
-1421.04
-1164.4
-902.362
-638.67
-377.298
-122.309
-2689.71
-2674.82
-2644.98
-2600.05
-2539.89
-2464.33
-2373.26
-2266.63
-2144.58
-2007.4
-1855.67
-1690.28
-1512.44
-1323.76
-1126.2
-922.121
-714.16
-505.222
-298.368
-96.7087
-2144
-2131.86
-2107.54
-2070.97
-2022.06
-1960.74
-1886.98
-1800.83
-1702.45
-1592.17
-1470.52
-1338.26
-1196.42
-1046.3
-889.487
-727.818
-563.365
-398.375
-235.201
-76.2251
-1701.29
-1691.46
-1671.78
-1642.21
-1602.72
-1553.28
-1493.93
-1424.74
-1345.91
-1257.75
-1160.73
-1055.49
-942.891
-823.98
-700.016
-572.447
-442.884
-313.061
-184.785
-59.8792
-1343.85
-1335.95
-1320.13
-1296.38
-1264.7
-1225.09
-1177.62
-1122.39
-1059.58
-989.484
-912.503
-829.182
-740.214
-646.441
-548.86
-448.602
-346.918
-245.143
-144.664
-46.8733
-1056.64
-1050.32
-1037.69
-1018.74
-993.482
-961.952
-924.211
-880.372
-830.608
-775.171
-714.406
-648.759
-578.791
-505.173
-428.688
-350.219
-270.73
-191.249
-112.837
-36.5576
-826.956
-821.942
-811.915
-796.887
-776.876
-751.923
-722.094
-687.496
-648.284
-604.674
-556.952
-505.485
-450.719
-393.185
-333.497
-272.338
-210.452
-148.628
-87.6754
-28.4032
-644.153
-640.196
-632.289
-620.443
-604.684
-585.053
-561.613
-534.461
-503.731
-469.606
-432.32
-392.168
-349.505
-304.748
-258.375
-210.913
-162.935
-115.043
-67.8524
-21.9797
-499.345
-496.243
-490.044
-480.764
-468.427
-453.073
-434.759
-413.57
-389.619
-363.058
-334.076
-302.908
-269.834
-235.181
-199.317
-162.65
-125.616
-88.6735
-52.2923
-16.9381
-385.163
-382.745
-377.916
-370.69
-361.09
-349.151
-334.926
-318.484
-299.921
-279.359
-256.95
-232.88
-207.369
-180.67
-153.066
-124.869
-96.4134
-68.0463
-40.1229
-12.9955
-295.523
-293.651
-289.913
-284.321
-276.897
-267.671
-256.687
-244.005
-229.7
-213.872
-196.642
-178.155
-158.581
-138.116
-116.978
-95.4033
-73.6457
-51.9684
-30.6391
-9.92322
-225.431
-223.991
-221.117
-216.819
-211.115
-204.033
-195.606
-185.885
-174.932
-162.823
-149.654
-135.539
-120.608
-105.012
-88.915
-72.4986
-55.9533
-39.4776
-23.2725
-7.53697
-170.801
-169.702
-167.509
-164.23
-159.881
-154.484
-148.068
-140.671
-132.343
-123.145
-113.151
-102.448
-91.1357
-79.3287
-67.1523
-54.742
-42.2414
-29.7991
-17.5653
-5.6884
-128.302
-127.471
-125.813
-123.336
-120.051
-115.976
-111.135
-105.557
-99.2827
-92.3576
-84.839
-76.793
-68.296
-59.4335
-50.2998
-40.9961
-31.6294
-22.3101
-13.1497
-4.25829
-95.2238
-94.6036
-93.3662
-91.5177
-89.0677
-86.0301
-82.4229
-78.27
-73.6006
-68.4508
-62.8633
-56.888
-50.582
-44.0088
-37.2383
-30.3454
-23.4088
-16.5099
-9.73035
-3.15088
-69.3567
-68.9028
-67.9972
-66.6448
-64.8529
-62.632
-59.996
-56.9626
-53.5539
-49.7967
-45.7225
-41.3681
-36.7752
-31.9904
-27.0644
-22.0515
-17.0088
-11.9949
-7.06894
-2.28899
-48.8906
-48.5693
-47.9284
-46.9715
-45.7041
-44.1336
-42.2704
-40.1271
-37.7198
-35.0676
-32.193
-29.1222
-25.8848
-22.5135
-19.0442
-15.5149
-11.9658
-8.43787
-4.97242
-1.61008
-32.3242
-32.1112
-31.6862
-31.0517
-30.2115
-29.1707
-27.9362
-26.5166
-24.9227
-23.1673
-21.2654
-19.2345
-17.0941
-14.866
-12.5738
-10.2427
-7.89902
-5.56979
-3.28214
-1.06274
-18.3864
-18.2649
-18.0227
-17.6611
-17.1823
-16.5893
-15.8861
-15.0776
-14.1701
-13.1709
-12.0885
-10.9331
-9.71561
-8.44857
-7.14536
-5.82029
-4.48829
-3.16467
-1.86481
-0.60381
-5.96381
-5.92437
-5.84572
-5.72831
-5.57287
-5.38036
-5.15209
-4.8897
-4.59519
-4.27096
-3.91981
-3.54498
-3.15009
-2.73917
-2.31656
-1.8869
-1.45504
-1.02592
-0.604524
-0.195738
)
;

boundaryField
{
    topWall
    {
        type            calculated;
        value           uniform 0;
    }
    bottomWall
    {
        type            calculated;
        value           nonuniform List<scalar> 
20
(
-256946
-257185
-257676
-258451
-259555
-261060
-263066
-265714
-269203
-273818
-279974
-288299
-299778
-316053
-340091
-377881
-443338
-574350
-891141
-1.81512e+06
)
;
    }
    sideWallL
    {
        type            symmetry;
    }
    sideWallR
    {
        type            calculated;
        value           nonuniform List<scalar> 
45
(
-1.12305e+06
-286383
-101545
-47046.1
-26482.5
-16868.7
-11590.5
-8355.59
-6219.68
-4734.34
-3661.91
-2865.67
-2261.8
-1796.31
-1432.93
-1146.52
-919.081
-737.476
-591.879
-474.825
-380.554
-304.566
-243.309
-193.954
-154.23
-122.309
-96.7087
-76.2251
-59.8792
-46.8733
-36.5576
-28.4032
-21.9797
-16.9381
-12.9955
-9.92322
-7.53697
-5.6884
-4.25829
-3.15088
-2.28899
-1.61008
-1.06274
-0.60381
-0.195738
)
;
    }
    frontAndBack
    {
        type            empty;
    }
}


// ************************************************************************* //
