/*--------------------------------*- C++ -*----------------------------------*\
  =========                 |
  \\      /  F ield         | OpenFOAM: The Open Source CFD Toolbox
   \\    /   O peration     | Website:  https://openfoam.org
    \\  /    A nd           | Version:  7
     \\/     M anipulation  |
\*---------------------------------------------------------------------------*/
FoamFile
{
    version     2.0;
    format      ascii;
    class       volScalarField;
    location    "33";
    object      gradTx;
}
// * * * * * * * * * * * * * * * * * * * * * * * * * * * * * * * * * * * * * //

dimensions      [0 -1 0 1 0 0 0];

internalField   nonuniform List<scalar> 
900
(
-59.6769
-182.58
-316.443
-469.657
-652.412
-877.816
-1163.51
-1534.22
-2025.87
-2692.71
-3620.28
-4950.96
-6938.54
-10078.4
-15457
-25811.6
-49117.3
-111951
-310191
-973436
-169.91
-519.757
-900.553
-1335.94
-1854.56
-2493.08
-3300.63
-4345.55
-5726.23
-7589.29
-10161.3
-13807.3
-19144.4
-27274.6
-40289
-62390.1
-102334
-177753
-316005
-513835
-267.714
-818.591
-1417.1
-2099.4
-2908.96
-3900.83
-5147.77
-6749.39
-8846.12
-11641.6
-15439.6
-20705.3
-28172.1
-39022.4
-55190.1
-79798.8
-117531
-173742
-248149
-314266
-350.994
-1072.51
-1854.09
-2740.95
-3786.68
-5058.02
-6641.38
-8652.02
-11247.4
-14647.2
-19162.5
-25240
-33523.5
-44934.1
-60743.2
-82542.1
-111815
-148429
-186950
-211127
-415.88
-1269.67
-2191.09
-3230.42
-4446.31
-5910.23
-7712.28
-9968.87
-12833
-16507.9
-21264.7
-27463.3
-35571.3
-46167.8
-59892.6
-77260.6
-98187.2
-121032
-141203
-150490
-461.289
-1406.9
-2422.98
-3561.25
-4880.85
-6452.07
-8360.83
-10714
-13645.9
-17325.2
-21961.5
-27808.7
-35156.3
-44297.1
-55442.5
-68544.3
-82980.3
-97111.7
-107927
-111421
-487.725
-1485.9
-2553.39
-3740.3
-5102.75
-6705.56
-8625.27
-10953.1
-13798
-17288.2
-21570.1
-26801.4
-33131.2
-40659.5
-49361.7
-58966.4
-68789.4
-77576.5
-83503.4
-84591.8
-496.817
-1511.86
-2591.98
-3783.51
-5137.14
-6709.68
-8565.68
-10778.6
-13430.9
-16612.7
-20416.4
-24925.8
-30194.9
-36213.1
-42851.4
-49792.4
-56457.9
-61976.7
-65269.1
-65329.4
-490.963
-1492.29
-2552.42
-3712.51
-5016.55
-6512.29
-8251.72
-10291
-12688.9
-15503.8
-18787
-22571.9
-26855.7
-31574.5
-36570.3
-41555.6
-46089.9
-49592.2
-51423.6
-51055.5
-472.989
-1435.98
-2450.36
-3551.5
-4776.32
-6163.48
-7753.26
-9586.57
-11702.9
-14136.4
-16910
-20025.7
-23451.8
-27106
-30837.7
-34412.7
-37511.9
-39754
-40756.8
-40233.6
-445.839
-1352.01
-2301.8
-3324.76
-4450.93
-5710.68
-7134.09
-8749.63
-10582
-12648.3
-14953.4
-17482.2
-20191.2
-22998.7
-25775.6
-28341.8
-30471.5
-31915.5
-32441.7
-31890.4
-412.335
-1249.03
-2121.83
-3054.74
-4071.6
-5195.58
-6448.4
-7848.94
-9411.14
-11141.1
-13032.9
-15063.9
-17189
-19335.4
-21399
-23245
-24716.1
-25648.6
-25899.5
-25377.8
-375.01
-1134.78
-1923.72
-2760.93
-3664.83
-4652.67
-5739.57
-6937.33
-8252.62
-9684.65
-11222.3
-12840.9
-14498.7
-16134.9
-17668.3
-19000
-20020.6
-20622.3
-20715.5
-20247.3
-336.007
-1015.76
-1718.58
-2459.32
-3251.93
-4108.87
-5040.32
-6053.06
-7149.05
-8323.74
-9564.05
-10846.4
-12134.7
-13380
-14520.2
-15483.7
-16194.3
-16580.5
-16585.4
-16178.1
-297.048
-897.159
-1515.15
-2162.32
-2849.01
-3584.01
-4373.83
-5221.85
-6127.23
-7083.66
-8078.07
-9089.43
-10088
-11034.9
-11883.8
-12582.7
-13078.8
-13324.1
-13282.3
-12934.9
-259.433
-782.887
-1319.92
-1878.99
-2467.57
-3091.66
-3755.2
-4459.39
-5201.82
-5975.71
-6769.03
-7563.91
-8336.27
-9056.18
-9688.95
-10197.2
-10544.1
-10697.4
-10633.4
-10341.2
-224.084
-675.683
-1137.41
-1615.44
-2115.06
-2640.24
-3193.14
-3773.61
-4378.55
-5001.42
-5631.72
-6254.68
-6851.23
-7398.5
-7870.77
-8241.17
-8483.95
-8577.15
-8505.42
-8262.3
-191.591
-577.29
-970.391
-1375.32
-1795.71
-2234.08
-2691.41
-3166.77
-3656.92
-4155.94
-4654.94
-5141.99
-5602.21
-6018.26
-6371.15
-6641.57
-6811.45
-6865.8
-6794.54
-6593.94
-162.276
-488.637
-820.298
-1160.36
-1511.24
-1874.43
-2250.18
-2637.17
-3032.31
-3430.44
-3824.26
-4204.25
-4558.94
-4875.24
-5139.19
-5336.9
-5455.65
-5485.16
-5418.8
-5254.44
-136.248
-410.018
-687.498
-970.799
-1261.48
-1560.33
-1867.13
-2180.47
-2497.54
-2813.98
-3123.89
-3419.79
-3692.86
-3933.32
-4130.91
-4275.62
-4358.47
-4372.41
-4313.03
-4179.21
-113.462
-341.261
-571.591
-805.844
-1044.97
-1289.29
-1538.36
-1790.78
-2044.09
-2294.72
-2537.93
-2767.91
-2977.95
-3160.72
-3308.71
-3414.71
-3472.37
-3476.81
-3425.13
-3316.78
-93.7615
-281.866
-471.646
-663.98
-859.395
-1057.93
-1259.03
-1461.39
-1662.94
-1860.76
-2051.13
-2229.53
-2390.91
-2529.79
-2640.67
-2718.35
-2758.33
-2757.25
-2713.18
-2625.9
-76.9179
-231.127
-386.4
-543.261
-701.956
-862.357
-1023.87
-1185.35
-1345.08
-1500.71
-1649.31
-1787.45
-1911.28
-2016.76
-2099.84
-2156.78
-2184.39
-2180.34
-2143.35
-2073.39
-62.6634
-188.218
-314.41
-441.523
-569.625
-698.497
-827.565
-955.851
-1081.94
-1203.97
-1319.67
-1426.41
-1521.31
-1601.36
-1663.6
-1705.34
-1724.31
-1718.88
-1688.24
-1632.43
-50.7125
-152.265
-254.168
-356.543
-459.352
-562.337
-664.975
-766.442
-865.594
-960.968
-1050.81
-1133.11
-1205.72
-1266.42
-1313.03
-1343.62
-1356.57
-1350.76
-1325.64
-1281.33
-40.7795
-122.4
-204.181
-286.145
-368.193
-450.062
-531.292
-611.201
-688.873
-763.165
-832.73
-896.052
-951.517
-997.481
-1032.37
-1054.77
-1063.55
-1057.92
-1037.53
-1002.51
-32.5904
-97.7911
-163.032
-228.278
-293.4
-358.152
-422.136
-484.798
-545.411
-603.087
-656.797
-705.399
-747.687
-782.45
-808.54
-824.94
-830.838
-825.692
-809.278
-781.724
-25.8907
-77.6665
-129.411
-181.058
-232.472
-283.428
-333.594
-382.522
-429.64
-474.264
-515.609
-552.818
-584.994
-611.246
-630.735
-642.729
-646.652
-642.128
-629.016
-607.433
-20.449
-61.3273
-102.136
-142.795
-183.174
-223.075
-262.226
-300.268
-336.754
-371.159
-402.888
-431.299
-455.726
-475.515
-490.055
-498.818
-501.396
-497.528
-487.128
-470.297
-16.0596
-48.1526
-80.1592
-111.996
-143.545
-174.639
-205.053
-234.504
-262.647
-289.079
-313.351
-334.983
-353.484
-368.371
-379.202
-385.597
-387.266
-384.029
-375.834
-362.769
-12.5427
-37.5998
-62.5669
-87.3653
-111.89
-136.003
-159.522
-182.226
-203.847
-224.08
-242.586
-259.009
-272.985
-284.161
-292.216
-296.877
-297.937
-295.274
-288.858
-278.76
-9.74283
-29.2012
-48.5736
-67.7895
-86.7593
-105.369
-123.474
-140.901
-157.446
-172.876
-186.939
-199.369
-209.898
-218.268
-224.247
-227.639
-228.297
-226.137
-221.143
-213.374
-7.52785
-22.5587
-37.5119
-52.3262
-66.9268
-81.221
-95.0955
-108.415
-121.025
-132.748
-143.398
-152.776
-160.685
-166.939
-171.368
-173.832
-174.227
-172.497
-168.632
-162.681
-5.78637
-17.3373
-28.8208
-40.185
-51.3684
-62.2969
-72.8819
-83.0194
-92.5909
-101.465
-109.501
-116.553
-122.478
-127.138
-130.412
-132.199
-132.426
-131.054
-128.08
-123.542
-4.42555
-13.2581
-22.0336
-30.7092
-39.235
-47.5525
-55.5926
-63.276
-70.5128
-77.2049
-83.2477
-88.5342
-92.9589
-96.4224
-98.8368
-100.13
-100.251
-99.1735
-96.8971
-93.451
-3.36879
-10.091
-16.7659
-23.3587
-29.8296
-36.1326
-42.2144
-48.0146
-53.4655
-58.494
-63.0226
-66.9729
-70.2677
-72.8351
-74.6117
-75.5462
-75.6027
-74.7631
-73.0291
-70.4232
-2.55349
-7.6479
-12.7039
-17.6934
-22.5849
-27.3427
-31.926
-36.2888
-40.3805
-44.1466
-47.5302
-50.4735
-52.9205
-54.8191
-56.1237
-56.7979
-56.8163
-56.1669
-54.8519
-52.8886
-1.92895
-5.77672
-9.59361
-13.3573
-17.0433
-20.6236
-24.0674
-27.3397
-30.4029
-33.2165
-35.7385
-37.9268
-39.7405
-41.142
-42.0987
-42.5845
-42.5817
-42.0823
-41.0885
-39.6137
-1.45453
-4.35552
-7.23193
-10.0662
-12.8391
-15.5293
-18.113
-20.5643
-22.8547
-24.9544
-26.8324
-28.458
-29.8015
-30.8356
-31.537
-31.8871
-31.8735
-31.4908
-30.7412
-29.6349
-1.09804
-3.28772
-5.45792
-7.59485
-9.68354
-11.7076
-13.6489
-15.4878
-17.2032
-18.7728
-20.1739
-21.3838
-22.381
-23.1458
-23.6612
-23.9141
-23.8958
-23.6026
-23.0367
-22.2057
-0.834323
-2.49788
-4.14597
-5.76773
-7.35147
-8.88449
-10.353
-11.7419
-13.0355
-14.2171
-15.2697
-16.1767
-16.9223
-17.492
-17.8736
-18.0576
-18.038
-17.8123
-17.3822
-16.7537
-0.644103
-1.92821
-3.19991
-4.4505
-5.67075
-6.85067
-7.97953
-9.04579
-10.0373
-10.9414
-11.7453
-12.4366
-13.0033
-13.4349
-13.7223
-13.8585
-13.8392
-13.6628
-13.3308
-12.8477
-0.513048
-1.53576
-2.54823
-3.54334
-4.51355
-5.4508
-6.34647
-7.1914
-7.97596
-8.69025
-9.32433
-9.86847
-10.3135
-10.6513
-10.875
-10.9793
-10.9609
-10.8189
-10.5544
-10.1712
-0.43103
-1.29017
-2.14046
-2.97579
-3.7897
-4.57535
-5.32546
-6.03233
-6.68794
-7.28408
-7.81251
-8.26527
-8.63486
-8.91462
-9.09898
-9.18374
-9.16631
-9.04591
-8.82372
-8.50287
-0.391593
-1.17208
-1.94441
-2.70294
-3.44175
-4.15458
-4.8348
-5.47543
-6.0692
-6.6087
-7.08653
-7.49555
-7.82905
-8.08109
-8.24672
-8.32222
-8.30532
-8.1954
-7.99354
-7.7026
)
;

boundaryField
{
    topWall
    {
        type            calculated;
        value           nonuniform List<scalar> 
20
(
-0.391593
-1.17208
-1.94441
-2.70294
-3.44175
-4.15458
-4.8348
-5.47543
-6.0692
-6.6087
-7.08653
-7.49555
-7.82905
-8.08109
-8.24672
-8.32222
-8.30532
-8.1954
-7.99354
-7.7026
)
;
    }
    bottomWall
    {
        type            calculated;
        value           nonuniform List<scalar> 
20
(
-59.6769
-182.58
-316.443
-469.657
-652.412
-877.816
-1163.51
-1534.22
-2025.87
-2692.71
-3620.28
-4950.96
-6938.54
-10078.4
-15457
-25811.6
-49117.3
-111951
-310191
-973436
)
;
    }
    sideWallL
    {
        type            symmetry;
    }
    sideWallR
    {
        type            calculated;
        value           nonuniform List<scalar> 
45
(
-1.48488e+06
-622914
-339351
-216735
-151166
-110805
-83691.4
-64442.9
-50269
-39564.2
-31331.7
-24916.6
-19869
-15869.3
-12683.8
-10137.6
-8097.72
-6461.28
-5147.81
-4093.76
-3248.52
-2571.55
-2030.25
-1598.31
-1254.44
-981.389
-765.2
-594.555
-460.299
-355.038
-272.806
-208.807
-159.193
-120.888
-91.4409
-68.9063
-51.748
-38.7584
-28.9944
-21.7252
-16.3909
-12.5693
-9.95058
-8.31829
-7.53534
)
;
    }
    frontAndBack
    {
        type            empty;
    }
}


// ************************************************************************* //
