/*--------------------------------*- C++ -*----------------------------------*\
  =========                 |
  \\      /  F ield         | OpenFOAM: The Open Source CFD Toolbox
   \\    /   O peration     | Website:  https://openfoam.org
    \\  /    A nd           | Version:  7
     \\/     M anipulation  |
\*---------------------------------------------------------------------------*/
FoamFile
{
    version     2.0;
    format      ascii;
    class       volScalarField;
    location    "33";
    object      rhoc;
}
// * * * * * * * * * * * * * * * * * * * * * * * * * * * * * * * * * * * * * //

dimensions      [1 -3 0 0 0 0 0];

internalField   nonuniform List<scalar> 
900
(
1.83385e-05
1.82996e-05
1.82195e-05
1.80938e-05
1.79154e-05
1.76739e-05
1.73554e-05
1.69413e-05
1.64071e-05
1.5721e-05
1.48427e-05
1.37216e-05
1.22979e-05
1.0507e-05
8.29798e-06
5.68839e-06
2.91694e-06
7.33573e-07
2.02205e-08
3.58711e-14
2.3206e-07
2.30423e-07
2.27083e-07
2.21909e-07
2.14708e-07
2.05231e-07
1.9319e-07
1.78291e-07
1.60294e-07
1.39112e-07
1.1498e-07
8.86765e-08
6.17969e-08
3.69018e-08
1.72052e-08
5.25556e-09
7.32719e-10
2.04168e-11
1.35907e-14
4.3862e-22
3.16086e-09
3.12069e-09
3.03949e-09
2.9157e-09
2.74745e-09
2.53317e-09
2.27267e-09
1.96855e-09
1.62819e-09
1.26581e-09
9.04075e-10
5.73347e-10
3.0642e-10
1.27002e-10
3.55681e-11
5.29791e-12
2.71195e-13
2.07206e-15
4.63042e-19
1.87727e-25
4.30762e-11
4.22666e-11
4.06466e-11
3.82204e-11
3.50079e-11
3.10617e-11
2.64886e-11
2.1474e-11
1.62988e-11
1.13363e-11
7.00817e-12
3.68419e-12
1.54257e-12
4.65817e-13
8.69559e-14
7.85464e-15
2.31349e-16
1.18295e-18
4.17491e-22
5.30868e-27
6.11377e-13
5.96154e-13
5.66019e-13
5.21704e-13
4.64576e-13
3.96915e-13
3.22183e-13
2.45145e-13
1.7165e-13
1.07826e-13
5.86607e-14
2.63054e-14
9.06437e-15
2.17011e-15
3.12029e-16
2.18299e-17
5.51792e-19
3.4095e-21
3.49235e-24
8.0996e-28
9.50336e-15
9.21258e-15
8.64281e-15
7.81951e-15
6.78485e-15
5.60082e-15
4.34999e-15
3.13115e-15
2.04687e-15
1.1825e-15
5.81955e-16
2.32162e-16
7.01952e-17
1.4687e-17
1.88256e-18
1.26114e-19
3.63767e-21
3.71066e-23
1.25136e-25
2.68189e-28
1.69988e-16
1.63952e-16
1.52233e-16
1.35562e-16
1.15077e-16
9.23261e-17
6.91895e-17
4.76789e-17
2.95943e-17
1.61041e-17
7.41645e-18
2.76124e-18
7.83535e-19
1.57249e-19
2.03578e-20
1.52833e-21
5.97818e-23
1.14196e-24
1.1817e-26
1.33268e-28
3.663e-18
3.51894e-18
3.2414e-18
2.85161e-18
2.38129e-18
1.87121e-18
1.36751e-18
9.15337e-19
5.50164e-19
2.8957e-19
1.2931e-19
4.71053e-20
1.33439e-20
2.77811e-21
3.99165e-22
3.71956e-23
2.1518e-24
7.85832e-26
2.17811e-27
8.37034e-29
9.90027e-20
9.48602e-20
8.69241e-20
7.58829e-20
6.27336e-20
4.87058e-20
3.51219e-20
2.31911e-20
1.37739e-20
7.19828e-21
3.22294e-21
1.19792e-21
3.56513e-22
8.17024e-23
1.38803e-23
1.69928e-24
1.49751e-25
1.012e-26
6.45456e-28
6.07548e-29
3.46982e-21
3.32075e-21
3.03617e-21
2.64248e-21
2.17715e-21
1.68512e-21
1.21314e-21
8.0221e-22
4.79853e-22
2.5494e-22
1.1778e-22
4.6207e-23
1.50119e-23
3.94262e-24
8.21743e-25
1.35348e-25
1.80787e-26
2.13333e-27
2.69091e-28
4.84346e-29
1.61725e-22
1.54819e-22
1.41653e-22
1.23475e-22
1.02036e-22
7.94017e-23
5.76885e-23
3.87218e-23
2.37137e-23
1.30614e-23
6.36874e-24
2.70406e-24
9.84185e-25
3.03367e-25
7.88807e-26
1.75104e-26
3.457e-27
6.63209e-28
1.43361e-28
4.11288e-29
1.01943e-23
9.77457e-24
8.97394e-24
7.86699e-24
6.5578e-24
5.16883e-24
3.82517e-24
2.63555e-24
1.6744e-24
9.70537e-25
5.07668e-25
2.37191e-25
9.81992e-26
3.59187e-26
1.16795e-26
3.44997e-27
9.68825e-28
2.7909e-28
9.10013e-29
3.64859e-29
8.76776e-25
8.42992e-25
7.78393e-25
6.88692e-25
5.81872e-25
4.67365e-25
3.54914e-25
2.53196e-25
1.68508e-25
1.0387e-25
5.89046e-26
3.05745e-26
1.44962e-26
6.30037e-27
2.54118e-27
9.75307e-28
3.71099e-28
1.47939e-28
6.54364e-29
3.33856e-29
1.03112e-25
9.95048e-26
9.25808e-26
8.29029e-26
7.12611e-26
5.86002e-26
4.59154e-26
3.41259e-26
2.39483e-26
1.58005e-26
9.76937e-27
5.65369e-27
3.06909e-27
1.57425e-27
7.74041e-28
3.73286e-28
1.82135e-28
9.31115e-29
5.14249e-29
3.12396e-29
1.6534e-26
1.60257e-26
1.50455e-26
1.3664e-26
1.19817e-26
1.01203e-26
8.21155e-27
6.38251e-27
4.73976e-27
3.35639e-27
2.2649e-27
1.45844e-27
9.00124e-28
5.36934e-28
3.1362e-28
1.8255e-28
1.08087e-28
6.64322e-29
4.30676e-29
2.97143e-29
3.58962e-27
3.49615e-27
3.31496e-27
3.05723e-27
2.73906e-27
2.38039e-27
2.00339e-27
1.63044e-27
1.28169e-27
9.72857e-28
7.13647e-28
5.07241e-28
3.5102e-28
2.38254e-28
1.60194e-28
1.07971e-28
7.387e-29
5.1894e-29
3.77622e-29
2.86086e-29
1.04188e-27
1.01982e-27
9.76815e-28
9.15064e-28
8.37766e-28
7.48966e-28
6.53313e-28
5.55698e-28
4.60827e-28
3.72765e-28
2.94555e-28
2.27979e-28
1.73539e-28
1.30639e-28
9.79187e-29
7.36271e-29
5.59576e-29
4.32761e-29
3.42349e-29
2.77954e-29
3.95419e-28
3.88883e-28
3.76073e-28
3.57509e-28
3.33962e-28
3.06427e-28
2.76083e-28
2.44223e-28
2.12166e-28
1.81148e-28
1.52221e-28
1.26168e-28
1.03459e-28
8.4251e-29
6.84358e-29
5.57103e-29
4.56609e-29
3.78373e-29
3.18077e-29
2.71907e-29
1.89664e-28
1.873e-28
1.82643e-28
1.75839e-28
1.67107e-28
1.56734e-28
1.45075e-28
1.3253e-28
1.1953e-28
1.06509e-28
9.38682e-29
8.19536e-29
7.10286e-29
6.12637e-29
5.27366e-29
4.54425e-29
3.93137e-29
3.42409e-29
3.00938e-29
2.67376e-29
1.10165e-28
1.09153e-28
1.07151e-28
1.04207e-28
1.00391e-28
9.57998e-29
9.05534e-29
8.47951e-29
7.86852e-29
7.23937e-29
6.60905e-29
5.99352e-29
5.4067e-29
4.85967e-29
4.36026e-29
3.91295e-29
3.51918e-29
3.17785e-29
2.88603e-29
2.63961e-29
7.41579e-29
7.36616e-29
7.2677e-29
7.12207e-29
6.93185e-29
6.70061e-29
6.43299e-29
6.13467e-29
5.81228e-29
5.47318e-29
5.12518e-29
4.7761e-29
4.43337e-29
4.10365e-29
3.79243e-29
3.50392e-29
3.24089e-29
3.00482e-29
2.79599e-29
2.61378e-29
5.56697e-29
5.5399e-29
5.48606e-29
5.4061e-29
5.30104e-29
5.17232e-29
5.02191e-29
4.85227e-29
4.6664e-29
4.46776e-29
4.2602e-29
4.04779e-29
3.83464e-29
3.6247e-29
3.42157e-29
3.22834e-29
3.0475e-29
2.88086e-29
2.72957e-29
2.59419e-29
4.52159e-29
4.50557e-29
4.47366e-29
4.42611e-29
4.36336e-29
4.28605e-29
4.19506e-29
4.09155e-29
3.97698e-29
3.8531e-29
3.72192e-29
3.58569e-29
3.44675e-29
3.30751e-29
3.17028e-29
3.03721e-29
2.91018e-29
2.79078e-29
2.6802e-29
2.57932e-29
3.88585e-29
3.87577e-29
3.85566e-29
3.82564e-29
3.7859e-29
3.73673e-29
3.67857e-29
3.61199e-29
3.53775e-29
3.45679e-29
3.37024e-29
3.27938e-29
3.18561e-29
3.09042e-29
2.99531e-29
2.90176e-29
2.81113e-29
2.72464e-29
2.64333e-29
2.56802e-29
3.47759e-29
3.47095e-29
3.45769e-29
3.43787e-29
3.41157e-29
3.37895e-29
3.34021e-29
3.29568e-29
3.24576e-29
3.19099e-29
3.13203e-29
3.06965e-29
3.00471e-29
2.93817e-29
2.87101e-29
2.80425e-29
2.73885e-29
2.67572e-29
2.61569e-29
2.55944e-29
3.20458e-29
3.20006e-29
3.19102e-29
3.17749e-29
3.15952e-29
3.13718e-29
3.11059e-29
3.07993e-29
3.04544e-29
3.00743e-29
2.96632e-29
2.92257e-29
2.87675e-29
2.82947e-29
2.78141e-29
2.73324e-29
2.68567e-29
2.63936e-29
2.59493e-29
2.55294e-29
3.01648e-29
3.01332e-29
3.00701e-29
2.99755e-29
2.98498e-29
2.96933e-29
2.95067e-29
2.92911e-29
2.9048e-29
2.87793e-29
2.84877e-29
2.81761e-29
2.78484e-29
2.75086e-29
2.71613e-29
2.68112e-29
2.64634e-29
2.61225e-29
2.57934e-29
2.54801e-29
2.88401e-29
2.88176e-29
2.87727e-29
2.87055e-29
2.8616e-29
2.85045e-29
2.83715e-29
2.82176e-29
2.80438e-29
2.78513e-29
2.76419e-29
2.74177e-29
2.7181e-29
2.69348e-29
2.66822e-29
2.64265e-29
2.61713e-29
2.592e-29
2.56761e-29
2.54428e-29
2.78922e-29
2.7876e-29
2.78437e-29
2.77953e-29
2.77308e-29
2.76505e-29
2.75546e-29
2.74436e-29
2.73181e-29
2.7179e-29
2.70274e-29
2.68647e-29
2.66928e-29
2.65134e-29
2.63289e-29
2.61416e-29
2.5954e-29
2.57687e-29
2.55881e-29
2.54147e-29
2.72063e-29
2.71946e-29
2.71711e-29
2.71359e-29
2.70891e-29
2.70308e-29
2.69612e-29
2.68805e-29
2.67893e-29
2.66881e-29
2.65777e-29
2.64592e-29
2.63338e-29
2.62027e-29
2.60676e-29
2.59302e-29
2.57923e-29
2.56556e-29
2.55222e-29
2.53936e-29
2.67062e-29
2.66976e-29
2.66805e-29
2.66548e-29
2.66206e-29
2.65781e-29
2.65272e-29
2.64684e-29
2.64018e-29
2.63279e-29
2.62473e-29
2.61608e-29
2.6069e-29
2.59731e-29
2.58741e-29
2.57733e-29
2.56719e-29
2.55713e-29
2.54728e-29
2.53778e-29
2.63396e-29
2.63334e-29
2.63208e-29
2.6302e-29
2.6277e-29
2.62458e-29
2.62087e-29
2.61656e-29
2.61169e-29
2.60629e-29
2.6004e-29
2.59406e-29
2.58735e-29
2.58033e-29
2.57308e-29
2.56568e-29
2.55824e-29
2.55085e-29
2.5436e-29
2.53659e-29
2.60703e-29
2.60657e-29
2.60565e-29
2.60427e-29
2.60243e-29
2.60015e-29
2.59743e-29
2.59428e-29
2.59071e-29
2.58676e-29
2.58245e-29
2.57782e-29
2.57291e-29
2.56777e-29
2.56246e-29
2.55705e-29
2.5516e-29
2.54618e-29
2.54086e-29
2.53571e-29
2.58721e-29
2.58687e-29
2.58619e-29
2.58518e-29
2.58384e-29
2.58217e-29
2.58018e-29
2.57787e-29
2.57526e-29
2.57237e-29
2.56922e-29
2.56584e-29
2.56225e-29
2.5585e-29
2.55462e-29
2.55067e-29
2.54668e-29
2.54272e-29
2.53882e-29
2.53505e-29
2.57263e-29
2.57238e-29
2.57188e-29
2.57115e-29
2.57016e-29
2.56894e-29
2.56748e-29
2.5658e-29
2.56389e-29
2.56178e-29
2.55948e-29
2.55702e-29
2.5544e-29
2.55166e-29
2.54884e-29
2.54596e-29
2.54305e-29
2.54016e-29
2.53732e-29
2.53456e-29
2.56191e-29
2.56173e-29
2.56137e-29
2.56083e-29
2.56011e-29
2.55922e-29
2.55816e-29
2.55693e-29
2.55554e-29
2.554e-29
2.55233e-29
2.55053e-29
2.54863e-29
2.54664e-29
2.54459e-29
2.54249e-29
2.54038e-29
2.53827e-29
2.53621e-29
2.5342e-29
2.55406e-29
2.55393e-29
2.55367e-29
2.55327e-29
2.55275e-29
2.5521e-29
2.55133e-29
2.55043e-29
2.54942e-29
2.5483e-29
2.54709e-29
2.54578e-29
2.5444e-29
2.54296e-29
2.54147e-29
2.53995e-29
2.53842e-29
2.53689e-29
2.53539e-29
2.53394e-29
2.54833e-29
2.54823e-29
2.54804e-29
2.54776e-29
2.54737e-29
2.5469e-29
2.54634e-29
2.54569e-29
2.54495e-29
2.54414e-29
2.54326e-29
2.54232e-29
2.54132e-29
2.54027e-29
2.53919e-29
2.53809e-29
2.53699e-29
2.53588e-29
2.5348e-29
2.53375e-29
2.54416e-29
2.54409e-29
2.54395e-29
2.54374e-29
2.54347e-29
2.54312e-29
2.54271e-29
2.54224e-29
2.54171e-29
2.54112e-29
2.54049e-29
2.5398e-29
2.53908e-29
2.53832e-29
2.53754e-29
2.53675e-29
2.53595e-29
2.53515e-29
2.53437e-29
2.53361e-29
2.54116e-29
2.5411e-29
2.541e-29
2.54085e-29
2.54065e-29
2.5404e-29
2.5401e-29
2.53976e-29
2.53937e-29
2.53895e-29
2.53848e-29
2.53799e-29
2.53746e-29
2.53692e-29
2.53635e-29
2.53578e-29
2.5352e-29
2.53462e-29
2.53406e-29
2.53351e-29
2.53901e-29
2.53897e-29
2.5389e-29
2.53879e-29
2.53864e-29
2.53846e-29
2.53824e-29
2.53799e-29
2.53771e-29
2.5374e-29
2.53706e-29
2.5367e-29
2.53631e-29
2.53592e-29
2.53551e-29
2.53509e-29
2.53467e-29
2.53425e-29
2.53384e-29
2.53344e-29
2.53751e-29
2.53749e-29
2.53743e-29
2.53735e-29
2.53724e-29
2.5371e-29
2.53694e-29
2.53676e-29
2.53655e-29
2.53631e-29
2.53606e-29
2.5358e-29
2.53551e-29
2.53522e-29
2.53491e-29
2.53461e-29
2.53429e-29
2.53399e-29
2.53368e-29
2.53339e-29
2.53651e-29
2.53649e-29
2.53645e-29
2.53638e-29
2.5363e-29
2.53619e-29
2.53607e-29
2.53593e-29
2.53577e-29
2.53559e-29
2.5354e-29
2.53519e-29
2.53498e-29
2.53475e-29
2.53452e-29
2.53428e-29
2.53405e-29
2.53381e-29
2.53358e-29
2.53335e-29
2.53589e-29
2.53588e-29
2.53584e-29
2.53579e-29
2.53572e-29
2.53564e-29
2.53554e-29
2.53542e-29
2.53529e-29
2.53515e-29
2.53499e-29
2.53482e-29
2.53465e-29
2.53447e-29
2.53428e-29
2.53409e-29
2.53389e-29
2.5337e-29
2.53351e-29
2.53333e-29
2.5356e-29
2.53559e-29
2.53556e-29
2.53551e-29
2.53545e-29
2.53537e-29
2.53528e-29
2.53518e-29
2.53506e-29
2.53493e-29
2.5348e-29
2.53465e-29
2.53449e-29
2.53433e-29
2.53416e-29
2.53399e-29
2.53382e-29
2.53365e-29
2.53348e-29
2.53332e-29
)
;

boundaryField
{
    topWall
    {
        type            zeroGradient;
    }
    bottomWall
    {
        type            zeroGradient;
    }
    sideWallL
    {
        type            symmetry;
    }
    sideWallR
    {
        type            zeroGradient;
    }
    frontAndBack
    {
        type            empty;
    }
}


// ************************************************************************* //
