/*--------------------------------*- C++ -*----------------------------------*\
  =========                 |
  \\      /  F ield         | OpenFOAM: The Open Source CFD Toolbox
   \\    /   O peration     | Website:  https://openfoam.org
    \\  /    A nd           | Version:  7
     \\/     M anipulation  |
\*---------------------------------------------------------------------------*/
FoamFile
{
    version     2.0;
    format      ascii;
    class       volScalarField;
    location    "33";
    object      rhog;
}
// * * * * * * * * * * * * * * * * * * * * * * * * * * * * * * * * * * * * * //

dimensions      [1 -3 0 0 0 0 0];

internalField   nonuniform List<scalar> 
900
(
0.159914
0.159684
0.159211
0.158467
0.157409
0.155972
0.154071
0.151585
0.148355
0.144167
0.138733
0.131668
0.122459
0.110429
0.0947137
0.0743522
0.0488957
0.0211139
0.00256294
1.14845e-06
0.0107375
0.0106925
0.0106004
0.0104566
0.0102542
0.00998386
0.00963323
0.00918725
0.00862834
0.00793742
0.00709644
0.00609355
0.00493287
0.00365117
0.00234199
0.00117646
0.000375315
4.69298e-05
6.54184e-07
2.37494e-11
0.000888194
0.000881593
0.000868141
0.000847347
0.000818492
0.000780667
0.000732851
0.000674053
0.000603558
0.000521343
0.000428687
0.000328987
0.000228583
0.000137
6.53518e-05
2.15622e-05
3.80304e-06
2.18213e-07
1.52014e-09
2.23026e-13
7.42266e-05
7.34077e-05
7.17497e-05
6.92147e-05
6.57534e-05
6.13161e-05
5.587e-05
4.94262e-05
4.20767e-05
3.40405e-05
2.57082e-05
1.76613e-05
1.06212e-05
5.27442e-06
1.97472e-06
4.81979e-07
6.05623e-08
2.67494e-09
2.34537e-11
2.53336e-14
6.28882e-06
6.19639e-06
6.0105e-06
5.72958e-06
5.35249e-06
4.88017e-06
4.31789e-06
3.67822e-06
2.9842e-06
2.27172e-06
1.5893e-06
9.92484e-07
5.30745e-07
2.28949e-07
7.30395e-08
1.51868e-08
1.7183e-09
8.31294e-11
1.33476e-12
7.92296e-15
5.55266e-07
5.45178e-07
5.25027e-07
4.94921e-07
4.55177e-07
4.06501e-07
3.50218e-07
2.88502e-07
2.24539e-07
1.62468e-07
1.06936e-07
6.21676e-08
3.06683e-08
1.21581e-08
3.59948e-09
7.22643e-10
8.7307e-11
5.59682e-12
1.79111e-13
3.96753e-15
5.26335e-08
5.15176e-08
4.93023e-08
4.60276e-08
4.17696e-08
3.66591e-08
3.09001e-08
2.47832e-08
1.8683e-08
1.30268e-08
8.22637e-09
4.57793e-09
2.167e-09
8.34029e-10
2.46791e-10
5.25746e-11
7.53354e-12
6.92737e-13
4.26263e-14
2.55041e-15
5.51e-09
5.37996e-09
5.12319e-09
4.74703e-09
4.26417e-09
3.6943e-09
3.0654e-09
2.41396e-09
1.78296e-09
1.21674e-09
7.52769e-10
4.1235e-10
1.94285e-10
7.60731e-11
2.38111e-11
5.72755e-12
1.02721e-12
1.37573e-13
1.50758e-14
1.8969e-15
6.53395e-10
6.36911e-10
6.04499e-10
5.57353e-10
4.97431e-10
4.27598e-10
3.51692e-10
2.74422e-10
2.00979e-10
1.36336e-10
8.42952e-11
4.66033e-11
2.25355e-11
9.30381e-12
3.20128e-12
9.0046e-13
2.06033e-13
3.94936e-14
7.07231e-15
1.54525e-15
8.96485e-11
8.73159e-11
8.27433e-11
7.61245e-11
6.77679e-11
5.81081e-11
4.77045e-11
3.72148e-11
2.7333e-11
1.86926e-11
1.17505e-11
6.69155e-12
3.39864e-12
1.51609e-12
5.8659e-13
1.95856e-13
5.70595e-14
1.51499e-14
4.0728e-15
1.33593e-15
1.4465e-11
1.40893e-11
1.33539e-11
1.22925e-11
1.09569e-11
9.41887e-12
7.76815e-12
6.10762e-12
4.54315e-12
3.16928e-12
2.05326e-12
1.22273e-12
6.62601e-13
3.24053e-13
1.42456e-13
5.65482e-14
2.06832e-14
7.30946e-15
2.72381e-15
1.20243e-15
2.77508e-12
2.70526e-12
2.56868e-12
2.37165e-12
2.12387e-12
1.83848e-12
1.53171e-12
1.22191e-12
9.27815e-13
6.66174e-13
4.49183e-13
2.82537e-13
1.64872e-13
8.8997e-14
4.45273e-14
2.08656e-14
9.38019e-15
4.22473e-15
2.03101e-15
1.11301e-15
6.36749e-13
6.21669e-13
5.9216e-13
5.49543e-13
4.95841e-13
4.33774e-13
3.66681e-13
2.9833e-13
2.32584e-13
1.72959e-13
1.22142e-13
8.16127e-14
5.14925e-14
3.07071e-14
1.74083e-14
9.50584e-15
5.11662e-15
2.80918e-15
1.63862e-15
1.05095e-15
1.74991e-13
1.712e-13
1.63772e-13
1.53019e-13
1.39415e-13
1.23598e-13
1.06353e-13
8.85687e-14
7.11707e-14
5.50246e-14
4.08328e-14
2.90457e-14
1.98149e-14
1.3008e-14
8.27952e-15
5.17608e-15
3.23929e-15
2.07804e-15
1.39957e-15
1.00674e-15
5.74817e-14
5.63761e-14
5.42055e-14
5.10522e-14
4.7042e-14
4.23441e-14
3.71678e-14
3.17532e-14
2.63549e-14
2.12194e-14
1.65592e-14
1.25289e-14
9.20939e-15
6.60571e-15
4.65817e-15
3.26447e-15
2.30501e-15
1.66451e-15
1.24575e-15
9.74621e-16
2.24628e-14
2.20914e-14
2.13606e-14
2.02946e-14
1.89307e-14
1.73194e-14
1.55236e-14
1.36166e-14
1.16779e-14
9.78745e-15
8.01795e-15
6.428e-15
5.05637e-15
3.91948e-15
3.0126e-15
2.31434e-15
1.79312e-15
1.41372e-15
1.14258e-15
9.50952e-16
1.03652e-14
1.0223e-14
9.94253e-15
9.53166e-15
9.00266e-15
8.37222e-15
7.66147e-15
6.89542e-15
6.10188e-15
5.30973e-15
4.5467e-15
3.83697e-15
3.19908e-15
2.64452e-15
2.17744e-15
1.79535e-15
1.4908e-15
1.25327e-15
1.07117e-15
9.33316e-16
5.5837e-15
5.52244e-15
5.4013e-15
5.22311e-15
4.99228e-15
4.71488e-15
4.39871e-15
4.05317e-15
3.68898e-15
3.31766e-15
2.95075e-15
2.59903e-15
2.2716e-15
1.9753e-15
1.71427e-15
1.48997e-15
1.30153e-15
1.14631e-15
1.02056e-15
9.20071e-16
3.45399e-15
3.4247e-15
3.36666e-15
3.28096e-15
3.1693e-15
3.03409e-15
2.87845e-15
2.70623e-15
2.52193e-15
2.33052e-15
2.1372e-15
1.94709e-15
1.76485e-15
1.59441e-15
1.43868e-15
1.29949e-15
1.17757e-15
1.07273e-15
9.84029e-16
9.10066e-16
2.40215e-15
2.38684e-15
2.35643e-15
2.31138e-15
2.2524e-15
2.1805e-15
2.09701e-15
2.00365e-15
1.90242e-15
1.79564e-15
1.68582e-15
1.57552e-15
1.46723e-15
1.36323e-15
1.26539e-15
1.17517e-15
1.09351e-15
1.02088e-15
9.57298e-16
9.02477e-16
1.83532e-15
1.82669e-15
1.80952e-15
1.78401e-15
1.75046e-15
1.70934e-15
1.66125e-15
1.60699e-15
1.54752e-15
1.48399e-15
1.41768e-15
1.34993e-15
1.28215e-15
1.21565e-15
1.15164e-15
1.09115e-15
1.03497e-15
9.83659e-16
9.37538e-16
8.96706e-16
1.50705e-15
1.50187e-15
1.49156e-15
1.47619e-15
1.45593e-15
1.43097e-15
1.40161e-15
1.36824e-15
1.33136e-15
1.29155e-15
1.2495e-15
1.20597e-15
1.16176e-15
1.11765e-15
1.07443e-15
1.0328e-15
9.93354e-16
9.56577e-16
9.22821e-16
8.92311e-16
1.30551e-15
1.30224e-15
1.29573e-15
1.28601e-15
1.27315e-15
1.25725e-15
1.23847e-15
1.21701e-15
1.19312e-15
1.16713e-15
1.13943e-15
1.11045e-15
1.08066e-15
1.05057e-15
1.02068e-15
9.91443e-16
9.63313e-16
9.36663e-16
9.11801e-16
8.88961e-16
1.17588e-15
1.17373e-15
1.16945e-15
1.16305e-15
1.15457e-15
1.14406e-15
1.13159e-15
1.11728e-15
1.10128e-15
1.08376e-15
1.06495e-15
1.04512e-15
1.02456e-15
1.00358e-15
9.82506e-16
9.6167e-16
9.41377e-16
9.21912e-16
9.03521e-16
8.86408e-16
1.08939e-15
1.08794e-15
1.08503e-15
1.08069e-15
1.07492e-15
1.06776e-15
1.05924e-15
1.04944e-15
1.03843e-15
1.02632e-15
1.01326e-15
9.994e-16
9.84933e-16
9.70062e-16
9.55005e-16
9.39985e-16
9.25223e-16
9.10926e-16
8.97285e-16
8.84464e-16
1.03002e-15
1.02901e-15
1.02699e-15
1.02397e-15
1.01996e-15
1.01497e-15
1.00902e-15
1.00216e-15
9.94432e-16
9.85909e-16
9.76675e-16
9.66836e-16
9.56512e-16
9.45842e-16
9.34972e-16
9.24058e-16
9.13255e-16
9.02716e-16
8.92584e-16
8.82986e-16
9.88372e-16
9.87658e-16
9.8623e-16
9.84092e-16
9.81248e-16
9.77708e-16
9.73486e-16
9.68607e-16
9.63102e-16
9.57016e-16
9.50404e-16
9.43336e-16
9.35894e-16
9.2817e-16
9.20266e-16
9.1229e-16
9.04354e-16
8.96568e-16
8.89039e-16
8.81864e-16
9.58669e-16
9.58156e-16
9.57132e-16
9.55598e-16
9.53557e-16
9.51014e-16
9.47981e-16
9.4447e-16
9.40505e-16
9.36115e-16
9.31336e-16
9.26217e-16
9.20812e-16
9.15186e-16
9.0941e-16
9.03561e-16
8.97718e-16
8.91961e-16
8.86368e-16
8.81015e-16
9.37225e-16
9.36854e-16
9.36112e-16
9.35001e-16
9.33522e-16
9.3168e-16
9.2948e-16
9.26934e-16
9.24056e-16
9.20866e-16
9.1739e-16
9.13661e-16
9.09717e-16
9.05603e-16
9.01369e-16
8.9707e-16
8.92764e-16
8.88507e-16
8.84358e-16
8.80372e-16
9.21609e-16
9.21339e-16
9.20798e-16
9.19988e-16
9.18909e-16
9.17566e-16
9.15962e-16
9.14105e-16
9.12005e-16
9.09677e-16
9.07138e-16
9.04411e-16
9.01524e-16
8.98509e-16
8.95401e-16
8.9224e-16
8.89066e-16
8.85921e-16
8.82849e-16
8.79888e-16
9.10169e-16
9.09971e-16
9.09575e-16
9.08982e-16
9.08193e-16
9.07209e-16
9.06036e-16
9.04677e-16
9.0314e-16
9.01435e-16
8.99576e-16
8.97579e-16
8.95463e-16
8.93251e-16
8.90969e-16
8.88644e-16
8.86307e-16
8.83987e-16
8.81717e-16
8.79525e-16
9.01756e-16
9.01611e-16
9.0132e-16
9.00885e-16
9.00306e-16
8.99585e-16
8.98724e-16
8.97728e-16
8.96602e-16
8.95353e-16
8.9399e-16
8.92526e-16
8.90975e-16
8.89353e-16
8.87678e-16
8.8597e-16
8.84252e-16
8.82544e-16
8.80871e-16
8.79252e-16
8.95557e-16
8.9545e-16
8.95237e-16
8.94917e-16
8.94492e-16
8.93963e-16
8.93332e-16
8.92601e-16
8.91776e-16
8.9086e-16
8.89862e-16
8.8879e-16
8.87653e-16
8.86465e-16
8.85237e-16
8.83985e-16
8.82724e-16
8.8147e-16
8.8024e-16
8.79049e-16
8.90986e-16
8.90908e-16
8.90751e-16
8.90517e-16
8.90205e-16
8.89817e-16
8.89354e-16
8.88819e-16
8.88214e-16
8.87544e-16
8.86813e-16
8.86029e-16
8.85197e-16
8.84328e-16
8.8343e-16
8.82514e-16
8.81591e-16
8.80673e-16
8.79771e-16
8.78897e-16
8.87618e-16
8.8756e-16
8.87446e-16
8.87274e-16
8.87045e-16
8.86761e-16
8.86422e-16
8.86031e-16
8.85588e-16
8.85099e-16
8.84565e-16
8.83992e-16
8.83385e-16
8.8275e-16
8.82095e-16
8.81426e-16
8.80753e-16
8.80082e-16
8.79424e-16
8.78785e-16
8.8514e-16
8.85098e-16
8.85014e-16
8.84888e-16
8.84721e-16
8.84513e-16
8.84266e-16
8.8398e-16
8.83657e-16
8.833e-16
8.82911e-16
8.82493e-16
8.82051e-16
8.81589e-16
8.81112e-16
8.80625e-16
8.80135e-16
8.79647e-16
8.79168e-16
8.78702e-16
8.83321e-16
8.8329e-16
8.83229e-16
8.83137e-16
8.83015e-16
8.82864e-16
8.82683e-16
8.82475e-16
8.8224e-16
8.8198e-16
8.81697e-16
8.81394e-16
8.81073e-16
8.80737e-16
8.80391e-16
8.80037e-16
8.79681e-16
8.79327e-16
8.78979e-16
8.78642e-16
8.81991e-16
8.81969e-16
8.81924e-16
8.81857e-16
8.81768e-16
8.81658e-16
8.81527e-16
8.81375e-16
8.81205e-16
8.81016e-16
8.8081e-16
8.8059e-16
8.80358e-16
8.80114e-16
8.79863e-16
8.79608e-16
8.7935e-16
8.79094e-16
8.78842e-16
8.78597e-16
8.81024e-16
8.81007e-16
8.80975e-16
8.80926e-16
8.80861e-16
8.80781e-16
8.80686e-16
8.80576e-16
8.80452e-16
8.80315e-16
8.80166e-16
8.80007e-16
8.79838e-16
8.79662e-16
8.7948e-16
8.79295e-16
8.79109e-16
8.78924e-16
8.78741e-16
8.78565e-16
8.80325e-16
8.80313e-16
8.80289e-16
8.80254e-16
8.80207e-16
8.80148e-16
8.80079e-16
8.79999e-16
8.79909e-16
8.79809e-16
8.79701e-16
8.79585e-16
8.79463e-16
8.79336e-16
8.79204e-16
8.7907e-16
8.78935e-16
8.78801e-16
8.78669e-16
8.78541e-16
8.79826e-16
8.79817e-16
8.798e-16
8.79774e-16
8.7974e-16
8.79697e-16
8.79646e-16
8.79587e-16
8.79521e-16
8.79449e-16
8.7937e-16
8.79285e-16
8.79196e-16
8.79103e-16
8.79007e-16
8.7891e-16
8.78811e-16
8.78714e-16
8.78618e-16
8.78525e-16
8.79478e-16
8.79471e-16
8.79458e-16
8.79439e-16
8.79413e-16
8.79381e-16
8.79343e-16
8.793e-16
8.79251e-16
8.79197e-16
8.79138e-16
8.79076e-16
8.7901e-16
8.78941e-16
8.7887e-16
8.78798e-16
8.78725e-16
8.78653e-16
8.78582e-16
8.78513e-16
8.79244e-16
8.79239e-16
8.79229e-16
8.79214e-16
8.79194e-16
8.7917e-16
8.79141e-16
8.79107e-16
8.7907e-16
8.79028e-16
8.78983e-16
8.78935e-16
8.78885e-16
8.78832e-16
8.78778e-16
8.78723e-16
8.78667e-16
8.78612e-16
8.78558e-16
8.78505e-16
8.791e-16
8.79096e-16
8.79088e-16
8.79076e-16
8.7906e-16
8.7904e-16
8.79016e-16
8.78989e-16
8.78958e-16
8.78925e-16
8.78888e-16
8.78849e-16
8.78808e-16
8.78765e-16
8.78721e-16
8.78677e-16
8.78632e-16
8.78587e-16
8.78543e-16
8.785e-16
8.79032e-16
8.79028e-16
8.79021e-16
8.7901e-16
8.78996e-16
8.78978e-16
8.78957e-16
8.78933e-16
8.78906e-16
8.78876e-16
8.78843e-16
8.78808e-16
8.78772e-16
8.78734e-16
8.78695e-16
8.78655e-16
8.78615e-16
8.78575e-16
8.78536e-16
8.78498e-16
)
;

boundaryField
{
    topWall
    {
        type            calculated;
        value           uniform 0;
    }
    bottomWall
    {
        type            zeroGradient;
    }
    sideWallL
    {
        type            symmetry;
    }
    sideWallR
    {
        type            calculated;
        value           uniform 0;
    }
    frontAndBack
    {
        type            empty;
    }
}


// ************************************************************************* //
