/*--------------------------------*- C++ -*----------------------------------*\
  =========                 |
  \\      /  F ield         | OpenFOAM: The Open Source CFD Toolbox
   \\    /   O peration     | Website:  https://openfoam.org
    \\  /    A nd           | Version:  7
     \\/     M anipulation  |
\*---------------------------------------------------------------------------*/
FoamFile
{
    version     2.0;
    format      ascii;
    class       volScalarField;
    location    "33";
    object      rhois;
}
// * * * * * * * * * * * * * * * * * * * * * * * * * * * * * * * * * * * * * //

dimensions      [1 -3 0 0 0 0 0];

internalField   nonuniform List<scalar> 
900
(
0.299253
0.298989
0.298444
0.297586
0.29636
0.29469
0.292464
0.289532
0.285684
0.280629
0.273959
0.265095
0.253197
0.237017
0.214652
0.183164
0.138346
0.0774762
0.017134
6.35681e-05
0.0474547
0.0473152
0.0470287
0.0465799
0.0459446
0.0450887
0.0439665
0.0425189
0.0406713
0.0383325
0.0353962
0.0317486
0.0272892
0.0219806
0.0159525
0.00968663
0.00422301
0.000930816
4.1839e-05
2.6567e-08
0.00771202
0.00767095
0.00758696
0.00745632
0.00727338
0.00703055
0.00671843
0.00632618
0.00584236
0.00525683
0.00456407
0.00376895
0.00289551
0.0019979
0.00116778
0.000522202
0.000148257
1.86849e-05
5.17807e-07
9.68074e-10
0.00124738
0.0012375
0.00121739
0.00118636
0.00114345
0.00108744
0.00101706
0.000931158
0.000829141
0.000711566
0.000580978
0.000442894
0.000306577
0.000184719
9.07014e-05
3.26803e-05
7.29219e-06
7.68055e-07
2.57115e-08
2.12827e-10
0.000204212
0.000202056
0.000197692
0.000191021
0.000181913
0.000170236
0.000155898
0.000138916
0.000119501
9.81766e-05
7.58808e-05
5.40237e-05
3.43829e-05
1.87362e-05
8.21215e-06
2.64467e-06
5.50562e-07
6.26663e-08
3.32032e-09
9.57825e-11
3.45811e-05
3.41302e-05
3.32222e-05
3.18464e-05
2.99921e-05
2.76558e-05
2.48508e-05
2.16213e-05
1.80572e-05
1.43084e-05
1.05898e-05
7.16659e-06
4.30876e-06
2.2134e-06
9.21953e-07
2.90854e-07
6.39704e-08
9.03358e-09
8.03151e-10
5.97394e-11
6.19131e-06
6.09725e-06
5.90872e-06
5.62543e-06
5.24812e-06
4.78017e-06
4.22956e-06
3.61118e-06
2.94896e-06
2.27682e-06
1.63708e-06
1.07492e-06
6.28441e-07
3.16825e-07
1.32412e-07
4.38405e-08
1.09959e-08
2.03959e-09
2.95183e-10
4.41857e-11
1.19655e-06
1.17635e-06
1.13605e-06
1.07593e-06
9.96669e-07
8.99675e-07
7.87431e-07
6.6387e-07
5.34598e-07
4.06794e-07
2.88566e-07
1.87645e-07
1.09587e-07
5.61113e-08
2.45261e-08
8.91775e-09
2.65245e-09
6.52876e-10
1.44529e-10
3.60745e-11
2.54307e-07
2.49733e-07
2.40636e-07
2.27144e-07
2.095e-07
1.88131e-07
1.6371e-07
1.37211e-07
1.09922e-07
8.33839e-08
5.92151e-08
3.88413e-08
2.31744e-08
1.23717e-08
5.81751e-09
2.38333e-09
8.52336e-10
2.74299e-10
8.6516e-11
3.13209e-11
6.03765e-08
5.92613e-08
5.7049e-08
5.37813e-08
4.95329e-08
4.44238e-08
3.86323e-08
3.24022e-08
2.60408e-08
1.98982e-08
1.43267e-08
9.6228e-09
5.96649e-09
3.38155e-09
1.73949e-09
8.11834e-10
3.4826e-10
1.42475e-10
5.97171e-11
2.83125e-11
1.62091e-08
1.59119e-08
1.53234e-08
1.44563e-08
1.33329e-08
1.19872e-08
1.04676e-08
8.83851e-09
7.17814e-09
5.57337e-09
4.10978e-09
2.85854e-09
1.86358e-09
1.13354e-09
6.42786e-10
3.41929e-10
1.73701e-10
8.72307e-11
4.56216e-11
2.6305e-11
4.96329e-09
4.87587e-09
4.70286e-09
4.44827e-09
4.11879e-09
3.72451e-09
3.27942e-09
2.80166e-09
2.31298e-09
1.8372e-09
1.39774e-09
1.01438e-09
7.0015e-10
4.59287e-10
2.87261e-10
1.72917e-10
1.01981e-10
6.05682e-11
3.7475e-11
2.4914e-11
1.74256e-09
1.71401e-09
1.6575e-09
1.57433e-09
1.46664e-09
1.33758e-09
1.1915e-09
1.03394e-09
8.71536e-10
7.11535e-10
5.61153e-10
4.26683e-10
3.12632e-10
2.21118e-10
1.51744e-10
1.02025e-10
6.82137e-11
4.62359e-11
3.2428e-11
2.39234e-11
7.03048e-10
6.9268e-10
6.72152e-10
6.41902e-10
6.02653e-10
5.55468e-10
5.01796e-10
4.43488e-10
3.82755e-10
3.22042e-10
2.6383e-10
2.10371e-10
1.63423e-10
1.24039e-10
9.24831e-11
6.82987e-11
5.05072e-11
3.78704e-11
2.91353e-11
2.32035e-11
3.25711e-10
3.21537e-10
3.13264e-10
3.01051e-10
2.85157e-10
2.65965e-10
2.43998e-10
2.19925e-10
1.94552e-10
1.68784e-10
1.43563e-10
1.1978e-10
9.81875e-11
7.93163e-11
6.34323e-11
5.05352e-11
4.04037e-11
3.26699e-11
2.69018e-11
2.26725e-11
1.7252e-10
1.70667e-10
1.6699e-10
1.6155e-10
1.54445e-10
1.45823e-10
1.35885e-10
1.24894e-10
1.13167e-10
1.0107e-10
8.89917e-11
7.73167e-11
6.63914e-11
5.6491e-11
4.77968e-11
4.03873e-11
3.42451e-11
2.9277e-11
2.53415e-11
2.22763e-11
1.03549e-10
1.02649e-10
1.00862e-10
9.82102e-11
9.47347e-11
9.04954e-11
8.55755e-11
8.00843e-11
7.41572e-11
6.79522e-11
6.16432e-11
5.54085e-11
4.94179e-11
4.38185e-11
3.87236e-11
3.42052e-11
3.02933e-11
2.69797e-11
2.42269e-11
2.19783e-11
6.94725e-11
6.89993e-11
6.80577e-11
6.66577e-11
6.48163e-11
6.25591e-11
5.99226e-11
5.69551e-11
5.37181e-11
5.02846e-11
4.67375e-11
4.31648e-11
3.96541e-11
3.62871e-11
3.31328e-11
3.0244e-11
2.76546e-11
2.53795e-11
2.34171e-11
2.17528e-11
5.1212e-11
5.09452e-11
5.04134e-11
4.96211e-11
4.85756e-11
4.72884e-11
4.57762e-11
4.40617e-11
4.21741e-11
4.01494e-11
3.80293e-11
3.58596e-11
3.36879e-11
3.15608e-11
2.95208e-11
2.76038e-11
2.58376e-11
2.42403e-11
2.28212e-11
2.15815e-11
4.07254e-11
4.05657e-11
4.02471e-11
3.97714e-11
3.91421e-11
3.83644e-11
3.74462e-11
3.63986e-11
3.52366e-11
3.39784e-11
3.26463e-11
3.12653e-11
2.98622e-11
2.84646e-11
2.70989e-11
2.57894e-11
2.45563e-11
2.34157e-11
2.23785e-11
2.14509e-11
3.43452e-11
3.42448e-11
3.40442e-11
3.37444e-11
3.33467e-11
3.28538e-11
3.22695e-11
3.15996e-11
3.08518e-11
3.00361e-11
2.91648e-11
2.82521e-11
2.73138e-11
2.63667e-11
2.54276e-11
2.45127e-11
2.36364e-11
2.28113e-11
2.20473e-11
2.13512e-11
3.02756e-11
3.02099e-11
3.00784e-11
2.98817e-11
2.96203e-11
2.92955e-11
2.89094e-11
2.84649e-11
2.79663e-11
2.74193e-11
2.68309e-11
2.62096e-11
2.5565e-11
2.49075e-11
2.42482e-11
2.35979e-11
2.29668e-11
2.23642e-11
2.17982e-11
2.12751e-11
2.75792e-11
2.75347e-11
2.74458e-11
2.73125e-11
2.71352e-11
2.69145e-11
2.66515e-11
2.63478e-11
2.60059e-11
2.56292e-11
2.52218e-11
2.4789e-11
2.43368e-11
2.3872e-11
2.34017e-11
2.29334e-11
2.24743e-11
2.20312e-11
2.16104e-11
2.12169e-11
2.5738e-11
2.57071e-11
2.56453e-11
2.55527e-11
2.54294e-11
2.52758e-11
2.50923e-11
2.48801e-11
2.46406e-11
2.43757e-11
2.40882e-11
2.37813e-11
2.3459e-11
2.31257e-11
2.27863e-11
2.24458e-11
2.21094e-11
2.1782e-11
2.14684e-11
2.11725e-11
2.44506e-11
2.44287e-11
2.4385e-11
2.43194e-11
2.4232e-11
2.4123e-11
2.39928e-11
2.38419e-11
2.36712e-11
2.3482e-11
2.32761e-11
2.30557e-11
2.28232e-11
2.25817e-11
2.23346e-11
2.20853e-11
2.18376e-11
2.15949e-11
2.13609e-11
2.11386e-11
2.3534e-11
2.35183e-11
2.34869e-11
2.34397e-11
2.33769e-11
2.32985e-11
2.32047e-11
2.3096e-11
2.29728e-11
2.28362e-11
2.26872e-11
2.25272e-11
2.2358e-11
2.21818e-11
2.20008e-11
2.18174e-11
2.16344e-11
2.14543e-11
2.12796e-11
2.11129e-11
2.28724e-11
2.2861e-11
2.28381e-11
2.28039e-11
2.27582e-11
2.27012e-11
2.2633e-11
2.25539e-11
2.24643e-11
2.23648e-11
2.2256e-11
2.21392e-11
2.20154e-11
2.18861e-11
2.17529e-11
2.16177e-11
2.14822e-11
2.13484e-11
2.12182e-11
2.10933e-11
2.23899e-11
2.23816e-11
2.23649e-11
2.23398e-11
2.23063e-11
2.22646e-11
2.22147e-11
2.21568e-11
2.20911e-11
2.20182e-11
2.19385e-11
2.18527e-11
2.17617e-11
2.16666e-11
2.15684e-11
2.14685e-11
2.13681e-11
2.12688e-11
2.11717e-11
2.10784e-11
2.20356e-11
2.20294e-11
2.20171e-11
2.19987e-11
2.19741e-11
2.19434e-11
2.19066e-11
2.18641e-11
2.18158e-11
2.17621e-11
2.17035e-11
2.16404e-11
2.15734e-11
2.15032e-11
2.14308e-11
2.13569e-11
2.12826e-11
2.12089e-11
2.11368e-11
2.10672e-11
2.1774e-11
2.17695e-11
2.17604e-11
2.17468e-11
2.17286e-11
2.1706e-11
2.16789e-11
2.16475e-11
2.16119e-11
2.15724e-11
2.15292e-11
2.14827e-11
2.14333e-11
2.13815e-11
2.13281e-11
2.12735e-11
2.12185e-11
2.11639e-11
2.11104e-11
2.10587e-11
2.15804e-11
2.15771e-11
2.15703e-11
2.15603e-11
2.15469e-11
2.15301e-11
2.15101e-11
2.1487e-11
2.14607e-11
2.14316e-11
2.13997e-11
2.13654e-11
2.1329e-11
2.12909e-11
2.12515e-11
2.12112e-11
2.11706e-11
2.11303e-11
2.10907e-11
2.10524e-11
2.14369e-11
2.14344e-11
2.14294e-11
2.1422e-11
2.14121e-11
2.13997e-11
2.1385e-11
2.13679e-11
2.13485e-11
2.1327e-11
2.13036e-11
2.12783e-11
2.12515e-11
2.12235e-11
2.11944e-11
2.11648e-11
2.11349e-11
2.11051e-11
2.10759e-11
2.10476e-11
2.13305e-11
2.13286e-11
2.1325e-11
2.13195e-11
2.13121e-11
2.1303e-11
2.12922e-11
2.12796e-11
2.12653e-11
2.12495e-11
2.12322e-11
2.12137e-11
2.1194e-11
2.11733e-11
2.1152e-11
2.11302e-11
2.11082e-11
2.10864e-11
2.10649e-11
2.1044e-11
2.12516e-11
2.12503e-11
2.12476e-11
2.12435e-11
2.12381e-11
2.12314e-11
2.12234e-11
2.12141e-11
2.12037e-11
2.1192e-11
2.11794e-11
2.11657e-11
2.11513e-11
2.11362e-11
2.11205e-11
2.11046e-11
2.10885e-11
2.10724e-11
2.10567e-11
2.10414e-11
2.11933e-11
2.11923e-11
2.11903e-11
2.11873e-11
2.11834e-11
2.11784e-11
2.11726e-11
2.11658e-11
2.11581e-11
2.11496e-11
2.11403e-11
2.11303e-11
2.11197e-11
2.11087e-11
2.10973e-11
2.10856e-11
2.10738e-11
2.10621e-11
2.10506e-11
2.10394e-11
2.11503e-11
2.11495e-11
2.11481e-11
2.11459e-11
2.1143e-11
2.11394e-11
2.11351e-11
2.11301e-11
2.11245e-11
2.11183e-11
2.11115e-11
2.11042e-11
2.10965e-11
2.10884e-11
2.10801e-11
2.10716e-11
2.1063e-11
2.10545e-11
2.10461e-11
2.1038e-11
2.11186e-11
2.11181e-11
2.1117e-11
2.11154e-11
2.11133e-11
2.11107e-11
2.11075e-11
2.11039e-11
2.10998e-11
2.10952e-11
2.10903e-11
2.1085e-11
2.10794e-11
2.10735e-11
2.10675e-11
2.10613e-11
2.10551e-11
2.10489e-11
2.10428e-11
2.10369e-11
2.10954e-11
2.1095e-11
2.10943e-11
2.10931e-11
2.10916e-11
2.10896e-11
2.10873e-11
2.10847e-11
2.10817e-11
2.10784e-11
2.10748e-11
2.1071e-11
2.10669e-11
2.10627e-11
2.10583e-11
2.10538e-11
2.10493e-11
2.10448e-11
2.10404e-11
2.10361e-11
2.10786e-11
2.10783e-11
2.10777e-11
2.10768e-11
2.10757e-11
2.10743e-11
2.10727e-11
2.10707e-11
2.10686e-11
2.10662e-11
2.10636e-11
2.10608e-11
2.10578e-11
2.10548e-11
2.10516e-11
2.10483e-11
2.10451e-11
2.10418e-11
2.10387e-11
2.10356e-11
2.10663e-11
2.10661e-11
2.10657e-11
2.10651e-11
2.10643e-11
2.10633e-11
2.1062e-11
2.10606e-11
2.10591e-11
2.10573e-11
2.10554e-11
2.10534e-11
2.10513e-11
2.10491e-11
2.10467e-11
2.10444e-11
2.1042e-11
2.10397e-11
2.10374e-11
2.10351e-11
2.10576e-11
2.10575e-11
2.10572e-11
2.10567e-11
2.10561e-11
2.10554e-11
2.10545e-11
2.10535e-11
2.10523e-11
2.1051e-11
2.10496e-11
2.10482e-11
2.10466e-11
2.1045e-11
2.10433e-11
2.10416e-11
2.10399e-11
2.10382e-11
2.10365e-11
2.10349e-11
2.10515e-11
2.10514e-11
2.10512e-11
2.10509e-11
2.10504e-11
2.10498e-11
2.10492e-11
2.10484e-11
2.10476e-11
2.10466e-11
2.10456e-11
2.10445e-11
2.10433e-11
2.10421e-11
2.10409e-11
2.10396e-11
2.10384e-11
2.10371e-11
2.10359e-11
2.10347e-11
2.10474e-11
2.10474e-11
2.10472e-11
2.10469e-11
2.10466e-11
2.10461e-11
2.10456e-11
2.10451e-11
2.10444e-11
2.10437e-11
2.10429e-11
2.1042e-11
2.10412e-11
2.10402e-11
2.10393e-11
2.10383e-11
2.10374e-11
2.10364e-11
2.10354e-11
2.10345e-11
2.10449e-11
2.10449e-11
2.10447e-11
2.10445e-11
2.10442e-11
2.10439e-11
2.10435e-11
2.1043e-11
2.10424e-11
2.10419e-11
2.10412e-11
2.10405e-11
2.10398e-11
2.10391e-11
2.10383e-11
2.10375e-11
2.10367e-11
2.10359e-11
2.10352e-11
2.10344e-11
2.10437e-11
2.10437e-11
2.10435e-11
2.10434e-11
2.10431e-11
2.10428e-11
2.10424e-11
2.1042e-11
2.10415e-11
2.1041e-11
2.10404e-11
2.10398e-11
2.10392e-11
2.10385e-11
2.10378e-11
2.10371e-11
2.10364e-11
2.10357e-11
2.10351e-11
2.10344e-11
)
;

boundaryField
{
    topWall
    {
        type            zeroGradient;
    }
    bottomWall
    {
        type            zeroGradient;
    }
    sideWallL
    {
        type            symmetry;
    }
    sideWallR
    {
        type            zeroGradient;
    }
    frontAndBack
    {
        type            empty;
    }
}


// ************************************************************************* //
