/*--------------------------------*- C++ -*----------------------------------*\
  =========                 |
  \\      /  F ield         | OpenFOAM: The Open Source CFD Toolbox
   \\    /   O peration     | Website:  https://openfoam.org
    \\  /    A nd           | Version:  7
     \\/     M anipulation  |
\*---------------------------------------------------------------------------*/
FoamFile
{
    version     2.0;
    format      ascii;
    class       volScalarField;
    location    "33";
    object      rhot2;
}
// * * * * * * * * * * * * * * * * * * * * * * * * * * * * * * * * * * * * * //

dimensions      [1 -3 0 0 0 0 0];

internalField   nonuniform List<scalar> 
900
(
0.0169849
0.0169461
0.0168665
0.0167415
0.0165643
0.0163247
0.0160091
0.0155993
0.0150719
0.0143964
0.0135348
0.0124403
0.0110595
0.00933855
0.0072447
0.00482377
0.00234566
0.000525993
1.05548e-05
5.00233e-12
0.000152057
0.000150886
0.000148501
0.000144812
0.000139691
0.000132977
0.000124489
0.000114055
0.000101558
8.70143e-05
7.06906e-05
5.3253e-05
3.59162e-05
2.04649e-05
8.89804e-06
2.43557e-06
2.81996e-07
5.54076e-09
1.71991e-12
7.12583e-21
1.4193e-06
1.39952e-06
1.35961e-06
1.29897e-06
1.21696e-06
1.11324e-06
9.88315e-07
8.44248e-07
6.85581e-07
5.20187e-07
3.59637e-07
2.18234e-07
1.09741e-07
4.17283e-08
1.03038e-08
1.26707e-09
4.76869e-11
2.15069e-13
1.81342e-17
1.08204e-24
1.29594e-08
1.26911e-08
1.21559e-08
1.13584e-08
1.03106e-08
9.03713e-09
7.58223e-09
6.01647e-09
4.43969e-09
2.97543e-09
1.751e-09
8.61595e-10
3.29668e-10
8.78414e-11
1.37243e-11
9.55461e-13
1.89819e-14
5.24297e-17
6.89027e-21
1.8229e-26
1.21067e-10
1.17732e-10
1.11158e-10
1.0156e-10
8.93176e-11
7.5029e-11
5.95521e-11
4.4001e-11
2.96504e-11
1.77152e-11
9.02364e-12
3.70862e-12
1.1371e-12
2.32341e-13
2.68519e-14
1.38303e-15
2.25979e-17
7.44886e-20
3.09691e-23
2.07126e-27
1.22424e-12
1.18263e-12
1.10154e-12
9.85429e-13
8.41482e-13
6.79795e-13
5.13163e-13
3.55947e-13
2.2179e-13
1.2042e-13
5.46781e-14
1.96387e-14
5.17322e-15
9.01904e-16
9.0628e-17
4.37719e-18
8.12047e-20
4.57752e-22
7.05796e-25
5.69862e-28
1.41818e-14
1.36202e-14
1.25369e-14
1.10129e-14
9.17067e-15
7.16977e-15
5.19405e-15
3.42595e-15
2.01035e-15
1.0181e-15
4.27668e-16
1.41514e-16
3.45059e-17
5.69474e-18
5.72531e-19
3.09987e-20
7.96311e-22
8.91524e-24
4.75804e-26
2.50237e-28
1.98563e-16
1.89823e-16
1.73108e-16
1.4993e-16
1.22481e-16
9.34574e-17
6.57369e-17
4.18954e-17
2.36607e-17
1.15102e-17
4.65375e-18
1.49568e-18
3.61845e-19
6.1765e-20
6.91644e-21
4.72122e-22
1.85904e-23
4.25372e-25
6.78822e-27
1.44266e-28
3.52535e-18
3.35967e-18
3.04484e-18
2.61291e-18
2.10889e-18
1.58585e-18
1.09731e-18
6.87518e-19
3.82261e-19
1.83957e-19
7.43347e-20
2.43301e-20
6.18835e-21
1.16903e-21
1.56819e-22
1.44195e-23
9.02398e-25
4.08166e-26
1.65161e-27
9.85311e-29
8.26171e-20
7.86166e-20
7.1045e-20
6.07241e-20
4.87839e-20
3.6519e-20
2.51874e-20
1.57797e-20
8.82475e-21
4.31472e-21
1.80017e-21
6.2364e-22
1.74235e-22
3.81528e-23
6.39952e-24
8.15494e-25
8.08054e-26
6.78628e-27
5.91286e-28
7.51677e-29
2.63565e-21
2.50834e-21
2.26776e-21
1.94058e-21
1.56301e-21
1.17593e-21
8.18372e-22
5.20539e-22
2.9832e-22
1.51525e-22
6.6976e-23
2.52712e-23
7.98948e-24
2.08467e-24
4.45941e-25
7.89906e-26
1.20639e-26
1.74193e-27
2.8021e-28
6.18005e-29
1.16876e-22
1.11412e-22
1.01078e-22
8.70028e-23
7.07108e-23
5.39174e-23
3.8261e-23
2.50245e-23
1.49182e-23
8.00699e-24
3.81991e-24
1.60001e-24
5.82542e-25
1.83463e-25
5.02134e-26
1.21974e-26
2.75561e-27
6.28704e-28
1.62682e-28
5.35248e-29
7.28633e-24
6.96596e-24
6.35855e-24
5.5272e-24
4.55749e-24
3.5463e-24
2.58758e-24
1.75738e-24
1.10189e-24
6.32432e-25
3.29581e-25
1.54923e-25
6.54664e-26
2.49296e-26
8.65568e-27
2.8113e-27
8.9263e-28
2.9519e-28
1.09346e-28
4.81044e-29
6.40578e-25
6.14848e-25
5.6586e-25
4.98309e-25
4.18617e-25
3.34155e-25
2.52254e-25
1.79137e-25
1.19011e-25
7.3579e-26
4.21531e-26
2.23287e-26
1.09509e-26
5.00691e-27
2.16572e-27
9.08371e-28
3.82731e-28
1.69092e-28
8.16793e-29
4.44055e-29
7.91536e-26
7.63366e-26
7.09443e-26
6.34391e-26
5.44606e-26
4.47575e-26
3.50988e-26
2.61733e-26
1.84982e-26
1.2358e-26
7.79332e-27
4.64321e-27
2.62433e-27
1.41924e-27
7.44852e-28
3.87059e-28
2.04174e-28
1.12268e-28
6.58486e-29
4.1804e-29
1.36311e-26
1.32154e-26
1.24148e-26
1.12888e-26
9.92085e-27
8.41073e-27
6.86472e-27
5.38347e-27
4.05006e-27
2.92061e-27
2.01988e-27
1.343e-27
8.62793e-28
5.39939e-28
3.32945e-28
2.05238e-28
1.28529e-28
8.30638e-29
5.61096e-29
3.99328e-29
3.22512e-27
3.14387e-27
2.9864e-27
2.76249e-27
2.4861e-27
2.17434e-27
1.8461e-27
1.52023e-27
1.21365e-27
9.39592e-28
7.06411e-28
5.17235e-28
3.70538e-28
2.6141e-28
1.8313e-28
1.28621e-28
9.14819e-29
6.65059e-29
4.97868e-29
3.85641e-29
1.02475e-27
1.0042e-27
9.64137e-28
9.06568e-28
8.34413e-28
7.51342e-28
6.61547e-28
5.6943e-28
4.79227e-28
3.9463e-28
3.18467e-28
2.52503e-28
1.97413e-28
1.5291e-28
1.18003e-28
9.12905e-29
7.1243e-29
5.64042e-29
4.55135e-29
3.75507e-29
4.22881e-28
4.16359e-28
4.0357e-28
3.85017e-28
3.61442e-28
3.33802e-28
3.03225e-28
2.7095e-28
2.38242e-28
2.06301e-28
1.76165e-28
1.48636e-28
1.24238e-28
1.03208e-28
8.55289e-29
7.0987e-29
5.92422e-29
4.98944e-29
4.25371e-29
3.67933e-29
2.17276e-28
2.14766e-28
2.09818e-28
2.02583e-28
1.93282e-28
1.82209e-28
1.69722e-28
1.56227e-28
1.42164e-28
1.27976e-28
1.1408e-28
1.00844e-28
8.85585e-29
7.74277e-29
6.75631e-29
5.89926e-29
5.16759e-29
4.55236e-29
4.04167e-29
3.62237e-29
1.32855e-28
1.31724e-28
1.29486e-28
1.26192e-28
1.21918e-28
1.16767e-28
1.10868e-28
1.04374e-28
9.74557e-29
9.02965e-29
8.30802e-29
7.59821e-29
6.91583e-29
6.27375e-29
5.68157e-29
5.14542e-29
4.66815e-29
4.24976e-29
3.88806e-29
3.57932e-29
9.27183e-29
9.21412e-29
9.09962e-29
8.9302e-29
8.7088e-29
8.43943e-29
8.1273e-29
7.77875e-29
7.40118e-29
7.00283e-29
6.59245e-29
6.17889e-29
5.77065e-29
5.37547e-29
4.99992e-29
4.64918e-29
4.32694e-29
4.03539e-29
3.7754e-29
3.54669e-29
7.13396e-29
7.10156e-29
7.03712e-29
6.94142e-29
6.81567e-29
6.66159e-29
6.48146e-29
6.27815e-29
6.05515e-29
5.81644e-29
5.56649e-29
5.30999e-29
5.05175e-29
4.79641e-29
4.54824e-29
4.31101e-29
4.08779e-29
3.88093e-29
3.69201e-29
3.52193e-29
5.89236e-29
5.87279e-29
5.83382e-29
5.77576e-29
5.69918e-29
5.60485e-29
5.49384e-29
5.36757e-29
5.22777e-29
5.07653e-29
4.91624e-29
4.74954e-29
4.57922e-29
4.40813e-29
4.23904e-29
4.07455e-29
3.91696e-29
3.76823e-29
3.6299e-29
3.50311e-29
5.12276e-29
5.11028e-29
5.08538e-29
5.04823e-29
4.99907e-29
4.93829e-29
4.86644e-29
4.78423e-29
4.69261e-29
4.5927e-29
4.48588e-29
4.37369e-29
4.25782e-29
4.14004e-29
4.02219e-29
3.90602e-29
3.79321e-29
3.68525e-29
3.58344e-29
3.48881e-29
4.6219e-29
4.6136e-29
4.59704e-29
4.57229e-29
4.53948e-29
4.4988e-29
4.45055e-29
4.39512e-29
4.33305e-29
4.26498e-29
4.19173e-29
4.11425e-29
4.03358e-29
3.95088e-29
3.86736e-29
3.78422e-29
3.70265e-29
3.62377e-29
3.54859e-29
3.47796e-29
4.28388e-29
4.2782e-29
4.26684e-29
4.24986e-29
4.22732e-29
4.19932e-29
4.16602e-29
4.12767e-29
4.08457e-29
4.03713e-29
3.98584e-29
3.9313e-29
3.8742e-29
3.81528e-29
3.75537e-29
3.6953e-29
3.63592e-29
3.57804e-29
3.52242e-29
3.46974e-29
4.04956e-29
4.04557e-29
4.03762e-29
4.02571e-29
4.00989e-29
3.99021e-29
3.96678e-29
3.93974e-29
3.90928e-29
3.87566e-29
3.83919e-29
3.80028e-29
3.75937e-29
3.71696e-29
3.67363e-29
3.62994e-29
3.58651e-29
3.54393e-29
3.50276e-29
3.46352e-29
3.88388e-29
3.88105e-29
3.87539e-29
3.8669e-29
3.85563e-29
3.84159e-29
3.82487e-29
3.80554e-29
3.78374e-29
3.75963e-29
3.73343e-29
3.70539e-29
3.67583e-29
3.6451e-29
3.61357e-29
3.58168e-29
3.54983e-29
3.51846e-29
3.48799e-29
3.45882e-29
3.76508e-29
3.76304e-29
3.75896e-29
3.75285e-29
3.74473e-29
3.73462e-29
3.72256e-29
3.70862e-29
3.69287e-29
3.67544e-29
3.65648e-29
3.63615e-29
3.61467e-29
3.59229e-29
3.56928e-29
3.54593e-29
3.52255e-29
3.49944e-29
3.47692e-29
3.45528e-29
3.67902e-29
3.67754e-29
3.67458e-29
3.67015e-29
3.66426e-29
3.65692e-29
3.64817e-29
3.63805e-29
3.62662e-29
3.61395e-29
3.60016e-29
3.58536e-29
3.5697e-29
3.55336e-29
3.53654e-29
3.51943e-29
3.50226e-29
3.48525e-29
3.46864e-29
3.45262e-29
3.61627e-29
3.61519e-29
3.61303e-29
3.6098e-29
3.60551e-29
3.60016e-29
3.59379e-29
3.58641e-29
3.57808e-29
3.56885e-29
3.55879e-29
3.54799e-29
3.53656e-29
3.52462e-29
3.51231e-29
3.49978e-29
3.48718e-29
3.47468e-29
3.46245e-29
3.45063e-29
3.57031e-29
3.56952e-29
3.56795e-29
3.56559e-29
3.56245e-29
3.55855e-29
3.55389e-29
3.54851e-29
3.54243e-29
3.53569e-29
3.52834e-29
3.52046e-29
3.51211e-29
3.50339e-29
3.49439e-29
3.48522e-29
3.47599e-29
3.46682e-29
3.45784e-29
3.44915e-29
3.53659e-29
3.53601e-29
3.53486e-29
3.53313e-29
3.53084e-29
3.52799e-29
3.52458e-29
3.52065e-29
3.51621e-29
3.51129e-29
3.50593e-29
3.50018e-29
3.49409e-29
3.48772e-29
3.48115e-29
3.47445e-29
3.4677e-29
3.46099e-29
3.45441e-29
3.44804e-29
3.51182e-29
3.5114e-29
3.51055e-29
3.50929e-29
3.50762e-29
3.50553e-29
3.50305e-29
3.50018e-29
3.49694e-29
3.49335e-29
3.48944e-29
3.48525e-29
3.48081e-29
3.47617e-29
3.47138e-29
3.4665e-29
3.46158e-29
3.45668e-29
3.45188e-29
3.44723e-29
3.49364e-29
3.49333e-29
3.49272e-29
3.4918e-29
3.49057e-29
3.48905e-29
3.48724e-29
3.48515e-29
3.48279e-29
3.48018e-29
3.47734e-29
3.47428e-29
3.47105e-29
3.46768e-29
3.4642e-29
3.46064e-29
3.45707e-29
3.45351e-29
3.45001e-29
3.44662e-29
3.48033e-29
3.4801e-29
3.47965e-29
3.47898e-29
3.47809e-29
3.47699e-29
3.47567e-29
3.47415e-29
3.47243e-29
3.47053e-29
3.46846e-29
3.46625e-29
3.4639e-29
3.46146e-29
3.45893e-29
3.45635e-29
3.45376e-29
3.45118e-29
3.44864e-29
3.44618e-29
3.47061e-29
3.47044e-29
3.47012e-29
3.46963e-29
3.46898e-29
3.46817e-29
3.46722e-29
3.46611e-29
3.46486e-29
3.46349e-29
3.46199e-29
3.46038e-29
3.45869e-29
3.45691e-29
3.45508e-29
3.45322e-29
3.45134e-29
3.44947e-29
3.44764e-29
3.44585e-29
3.46354e-29
3.46342e-29
3.46318e-29
3.46283e-29
3.46236e-29
3.46177e-29
3.46108e-29
3.46027e-29
3.45937e-29
3.45837e-29
3.45729e-29
3.45612e-29
3.45489e-29
3.45361e-29
3.45229e-29
3.45094e-29
3.44958e-29
3.44823e-29
3.44691e-29
3.44562e-29
3.45844e-29
3.45836e-29
3.45818e-29
3.45792e-29
3.45758e-29
3.45715e-29
3.45665e-29
3.45607e-29
3.45541e-29
3.45468e-29
3.4539e-29
3.45305e-29
3.45216e-29
3.45123e-29
3.45027e-29
3.4493e-29
3.44832e-29
3.44734e-29
3.44638e-29
3.44545e-29
3.45481e-29
3.45474e-29
3.45462e-29
3.45443e-29
3.45417e-29
3.45386e-29
3.45349e-29
3.45307e-29
3.45259e-29
3.45206e-29
3.45148e-29
3.45087e-29
3.45022e-29
3.44954e-29
3.44884e-29
3.44813e-29
3.44741e-29
3.4467e-29
3.446e-29
3.44533e-29
3.45227e-29
3.45222e-29
3.45212e-29
3.45198e-29
3.4518e-29
3.45156e-29
3.45129e-29
3.45097e-29
3.45061e-29
3.45022e-29
3.4498e-29
3.44934e-29
3.44886e-29
3.44836e-29
3.44784e-29
3.44731e-29
3.44679e-29
3.44626e-29
3.44574e-29
3.44524e-29
3.45056e-29
3.45052e-29
3.45045e-29
3.45034e-29
3.4502e-29
3.45002e-29
3.44981e-29
3.44957e-29
3.44929e-29
3.44899e-29
3.44867e-29
3.44832e-29
3.44795e-29
3.44756e-29
3.44717e-29
3.44677e-29
3.44636e-29
3.44596e-29
3.44557e-29
3.44518e-29
3.44952e-29
3.44949e-29
3.44943e-29
3.44934e-29
3.44922e-29
3.44908e-29
3.4489e-29
3.44871e-29
3.44848e-29
3.44824e-29
3.44797e-29
3.44769e-29
3.44739e-29
3.44708e-29
3.44676e-29
3.44643e-29
3.44611e-29
3.44578e-29
3.44546e-29
3.44515e-29
3.44902e-29
3.44899e-29
3.44894e-29
3.44886e-29
3.44876e-29
3.44863e-29
3.44847e-29
3.4483e-29
3.4481e-29
3.44788e-29
3.44764e-29
3.44739e-29
3.44713e-29
3.44685e-29
3.44656e-29
3.44627e-29
3.44598e-29
3.44569e-29
3.44541e-29
3.44513e-29
)
;

boundaryField
{
    topWall
    {
        type            zeroGradient;
    }
    bottomWall
    {
        type            zeroGradient;
    }
    sideWallL
    {
        type            symmetry;
    }
    sideWallR
    {
        type            zeroGradient;
    }
    frontAndBack
    {
        type            empty;
    }
}


// ************************************************************************* //
