/*--------------------------------*- C++ -*----------------------------------*\
  =========                 |
  \\      /  F ield         | OpenFOAM: The Open Source CFD Toolbox
   \\    /   O peration     | Website:  https://openfoam.org
    \\  /    A nd           | Version:  7
     \\/     M anipulation  |
\*---------------------------------------------------------------------------*/
FoamFile
{
    version     2.0;
    format      ascii;
    class       volScalarField;
    location    "33";
    object      T;
}
// * * * * * * * * * * * * * * * * * * * * * * * * * * * * * * * * * * * * * //

dimensions      [0 0 0 1 0 0 0];

internalField   nonuniform List<scalar> 
900
(
577.305
577.282
577.232
577.155
577.044
576.894
576.693
576.429
576.08
575.618
575.003
574.17
573.022
571.395
568.991
565.212
558.666
545.565
513.886
421.488
535.246
535.178
535.038
534.818
534.503
534.076
533.506
532.755
531.768
530.465
528.732
526.4
523.209
518.743
512.3
502.627
487.343
461.693
416.242
335.291
500.163
500.056
499.835
499.489
498.995
498.325
497.435
496.266
494.735
492.728
490.079
486.552
481.797
475.283
466.188
453.207
434.268
406.195
364.771
306.935
469.104
468.963
468.675
468.222
467.578
466.707
465.555
464.05
462.094
459.551
456.235
451.886
446.139
438.477
428.166
414.18
395.149
369.454
335.777
294.674
441.604
441.437
441.096
440.561
439.804
438.782
437.44
435.697
433.452
430.564
426.849
422.058
415.864
407.83
397.396
383.873
366.492
344.598
318.079
288.117
417.376
417.192
416.814
416.223
415.389
414.27
412.808
410.926
408.523
405.468
401.593
396.683
390.469
382.62
372.75
360.443
345.333
327.251
306.488
284.081
396.138
395.943
395.544
394.922
394.048
392.881
391.366
389.431
386.984
383.911
380.069
375.283
369.349
362.031
353.085
342.286
329.498
314.77
298.468
281.369
377.609
377.41
377.004
376.374
375.491
374.319
372.807
370.893
368.496
365.52
361.851
357.354
351.88
345.276
337.395
328.135
317.478
305.552
292.687
279.444
361.518
361.321
360.921
360.3
359.436
358.294
356.831
354.993
352.714
349.917
346.513
342.403
337.484
331.66
324.854
317.032
308.232
298.596
288.395
278.027
347.606
347.417
347.032
346.437
345.611
344.526
343.146
341.425
339.311
336.744
333.656
329.98
325.646
320.599
314.804
308.264
301.039
293.259
285.137
276.956
335.632
335.454
335.092
334.533
333.762
332.753
331.477
329.899
327.978
325.667
322.918
319.685
315.925
311.609
306.726
301.298
295.389
289.11
282.623
276.133
325.372
325.207
324.873
324.359
323.651
322.73
321.573
320.151
318.433
316.386
313.977
311.173
307.951
304.297
300.217
295.738
290.919
285.851
280.659
275.492
316.619
316.469
316.165
315.7
315.061
314.234
313.2
311.938
310.425
308.637
306.551
304.148
301.415
298.349
294.961
291.281
287.361
283.273
279.112
274.987
309.185
309.05
308.779
308.363
307.795
307.062
306.151
305.046
303.73
302.186
300.401
298.361
296.062
293.507
290.71
287.699
284.516
281.221
277.884
274.587
302.898
302.779
302.539
302.173
301.674
301.033
300.24
299.284
298.152
296.833
295.318
293.602
291.682
289.566
287.268
284.813
282.235
279.581
276.906
274.268
297.604
297.5
297.291
296.972
296.539
295.985
295.303
294.483
293.519
292.402
291.129
289.695
288.103
286.36
284.481
282.485
280.402
278.267
276.123
274.014
293.166
293.077
292.896
292.622
292.25
291.776
291.194
290.498
289.684
288.747
287.684
286.494
285.182
283.754
282.222
280.606
278.926
277.212
275.495
273.81
289.462
289.386
289.231
288.997
288.681
288.279
287.788
287.203
286.521
285.74
284.858
283.878
282.802
281.637
280.394
279.089
277.738
276.364
274.991
273.646
286.384
286.319
286.189
285.991
285.724
285.387
284.975
284.486
283.92
283.274
282.548
281.744
280.866
279.92
278.916
277.865
276.781
275.682
274.587
273.515
283.837
283.783
283.673
283.508
283.285
283.003
282.661
282.256
281.788
281.257
280.663
280.007
279.295
278.53
277.722
276.878
276.011
275.135
274.262
273.409
281.739
281.693
281.602
281.465
281.28
281.047
280.764
280.431
280.048
279.614
279.13
278.599
278.023
277.407
276.758
276.084
275.393
274.695
274.002
273.325
280.018
279.98
279.905
279.791
279.639
279.448
279.216
278.944
278.631
278.279
277.887
277.458
276.995
276.502
275.983
275.446
274.896
274.342
273.793
273.257
278.612
278.581
278.52
278.427
278.302
278.146
277.957
277.736
277.483
277.198
276.883
276.539
276.168
275.774
275.361
274.934
274.498
274.06
273.626
273.203
277.469
277.444
277.394
277.318
277.217
277.09
276.938
276.759
276.556
276.327
276.074
275.799
275.503
275.19
274.863
274.525
274.181
273.835
273.493
273.16
276.544
276.524
276.483
276.422
276.341
276.238
276.116
275.972
275.809
275.626
275.425
275.206
274.971
274.724
274.465
274.198
273.927
273.656
273.387
273.125
275.799
275.782
275.75
275.701
275.635
275.553
275.455
275.341
275.211
275.065
274.905
274.732
274.547
274.352
274.148
273.939
273.726
273.513
273.303
273.098
275.2
275.187
275.161
275.122
275.07
275.005
274.927
274.836
274.733
274.618
274.492
274.355
274.209
274.056
273.896
273.733
273.566
273.4
273.236
273.077
274.723
274.712
274.692
274.661
274.619
274.568
274.506
274.434
274.353
274.262
274.163
274.056
273.942
273.822
273.697
273.57
273.44
273.311
273.184
273.059
274.343
274.335
274.318
274.294
274.261
274.22
274.172
274.116
274.052
273.981
273.903
273.82
273.731
273.637
273.541
273.441
273.341
273.241
273.142
273.046
274.042
274.036
274.023
274.004
273.978
273.946
273.908
273.864
273.814
273.759
273.699
273.634
273.565
273.492
273.417
273.341
273.263
273.186
273.11
273.036
273.805
273.8
273.79
273.775
273.755
273.73
273.701
273.667
273.628
273.585
273.538
273.488
273.435
273.379
273.321
273.262
273.202
273.143
273.084
273.027
273.619
273.616
273.608
273.596
273.581
273.561
273.539
273.512
273.482
273.449
273.413
273.374
273.333
273.29
273.246
273.201
273.155
273.109
273.064
273.021
273.474
273.471
273.465
273.456
273.445
273.43
273.412
273.392
273.369
273.343
273.316
273.286
273.254
273.222
273.188
273.153
273.118
273.083
273.049
273.016
273.362
273.36
273.355
273.348
273.339
273.327
273.314
273.298
273.281
273.261
273.24
273.217
273.193
273.168
273.143
273.116
273.09
273.063
273.037
273.012
273.275
273.273
273.269
273.264
273.257
273.248
273.238
273.226
273.213
273.198
273.182
273.165
273.147
273.128
273.108
273.088
273.068
273.048
273.028
273.009
273.208
273.206
273.204
273.2
273.194
273.188
273.18
273.171
273.161
273.15
273.137
273.124
273.111
273.096
273.081
273.066
273.051
273.036
273.021
273.007
273.157
273.156
273.153
273.15
273.146
273.141
273.135
273.129
273.121
273.112
273.103
273.093
273.083
273.072
273.061
273.05
273.038
273.027
273.016
273.005
273.118
273.117
273.115
273.113
273.11
273.106
273.102
273.097
273.091
273.084
273.077
273.07
273.062
273.054
273.046
273.037
273.029
273.02
273.012
273.004
273.088
273.088
273.086
273.085
273.082
273.08
273.076
273.072
273.068
273.063
273.058
273.052
273.047
273.041
273.034
273.028
273.022
273.015
273.009
273.003
273.066
273.066
273.065
273.064
273.062
273.06
273.057
273.054
273.051
273.047
273.044
273.039
273.035
273.03
273.026
273.021
273.016
273.011
273.007
273.002
273.05
273.05
273.049
273.048
273.047
273.045
273.043
273.041
273.039
273.036
273.033
273.03
273.026
273.023
273.019
273.016
273.012
273.009
273.005
273.002
273.039
273.038
273.038
273.037
273.036
273.035
273.033
273.032
273.03
273.028
273.025
273.023
273.02
273.018
273.015
273.012
273.009
273.007
273.004
273.001
273.031
273.03
273.03
273.029
273.029
273.028
273.026
273.025
273.023
273.022
273.02
273.018
273.016
273.014
273.012
273.01
273.007
273.005
273.003
273.001
273.026
273.025
273.025
273.025
273.024
273.023
273.022
273.021
273.02
273.018
273.017
273.015
273.013
273.012
273.01
273.008
273.006
273.004
273.003
273.001
273.023
273.023
273.023
273.022
273.022
273.021
273.02
273.019
273.018
273.017
273.015
273.014
273.012
273.011
273.009
273.007
273.006
273.004
273.002
273.001
)
;

boundaryField
{
    topWall
    {
        type            zeroGradient;
    }
    bottomWall
    {
        type            codedFixedValue;
        value           uniform 603;
        name            heating;
        code            #{
            const scalar t = this->db().time().value();
            const scalar Ttemp = 273 + 10*t;
            operator==(Ttemp);
        #};
    }
    sideWallL
    {
        type            symmetry;
    }
    sideWallR
    {
        type            fixedValue;
        value           uniform 273;
    }
    frontAndBack
    {
        type            empty;
    }
}


// ************************************************************************* //
