/*--------------------------------*- C++ -*----------------------------------*\
  =========                 |
  \\      /  F ield         | OpenFOAM: The Open Source CFD Toolbox
   \\    /   O peration     | Website:  https://openfoam.org
    \\  /    A nd           | Version:  7
     \\/     M anipulation  |
\*---------------------------------------------------------------------------*/
FoamFile
{
    version     2.0;
    format      ascii;
    class       volScalarField;
    location    "2";
    object      gradTx;
}
// * * * * * * * * * * * * * * * * * * * * * * * * * * * * * * * * * * * * * //

dimensions      [0 -1 0 1 0 0 0];

internalField   nonuniform List<scalar> 
900
(
-4.43811e-06
-2.23081e-05
-8.55322e-05
-0.000320987
-0.00118645
-0.00429385
-0.0151441
-0.0518896
-0.172395
-0.554903
-1.73107
-5.24381
-15.4885
-44.9423
-129.727
-379.879
-1159.92
-3812.16
-13828
-55589.1
-1.17421e-05
-5.89318e-05
-0.000225364
-0.000843102
-0.00310497
-0.0111891
-0.0392619
-0.133692
-0.440732
-1.4045
-4.32345
-12.857
-36.9734
-103.032
-279.073
-737.311
-1904.05
-4784.27
-11400.4
-23351.8
-1.53472e-05
-7.67818e-05
-0.000292303
-0.00108763
-0.00398052
-0.0142403
-0.0495438
-0.166996
-0.543778
-1.70673
-5.15423
-14.9551
-41.6396
-111.113
-283.649
-690.337
-1589.9
-3407.71
-6541.1
-10216.7
-1.50298e-05
-7.49121e-05
-0.000283525
-0.00104765
-0.00380373
-0.0134838
-0.0464173
-0.154531
-0.495862
-1.52921
-4.52041
-12.7749
-34.417
-88.0948
-213.246
-484.763
-1022.97
-1963.28
-3297.84
-4493.87
-1.2147e-05
-6.02708e-05
-0.00022658
-0.000830647
-0.00298892
-0.0104882
-0.0356883
-0.117236
-0.370401
-1.12171
-3.24522
-8.93811
-23.3444
-57.5424
-133.03
-285.925
-563.873
-999.313
-1538
-1941.63
-8.44695e-06
-4.17128e-05
-0.000155694
-0.000566012
-0.00201756
-0.00700508
-0.0235536
-0.0763335
-0.237473
-0.706479
-2.0022
-5.38345
-13.6689
-32.5909
-72.4507
-148.735
-278.203
-464.892
-674.025
-812.501
-5.17961e-06
-2.54542e-05
-9.43117e-05
-0.000339942
-0.00120021
-0.00412319
-0.0137006
-0.0438167
-0.134294
-0.392826
-1.09207
-2.87237
-7.11119
-16.4702
-35.4174
-70.0208
-125.611
-200.819
-279.142
-326.624
-2.84806e-06
-1.39274e-05
-5.12233e-05
-0.000183063
-0.000640248
-0.0021767
-0.00715008
-0.0225779
-0.0682261
-0.196438
-0.536504
-1.38326
-3.34852
-7.56219
-15.8093
-30.2981
-52.5679
-81.2384
-109.511
-125.574
-1.42115e-06
-6.91789e-06
-2.52604e-05
-8.95217e-05
-0.000310214
-0.00104407
-0.00339197
-0.0105821
-0.0315544
-0.0895281
-0.240577
-0.609215
-1.44567
-3.19387
-6.51832
-12.173
-20.5579
-30.939
-40.7597
-46.0718
-6.50352e-07
-3.15028e-06
-1.14216e-05
-4.01494e-05
-0.000137889
-0.000459608
-0.00147755
-0.00455724
-0.0134211
-0.0375656
-0.0994578
-0.247805
-0.577724
-1.25206
-2.50313
-4.57408
-7.55582
-11.134
-14.4118
-16.1183
-2.74269e-07
-1.32391e-06
-4.77134e-06
-1.66469e-05
-5.66812e-05
-0.000187182
-0.000595781
-0.00181792
-0.00529198
-0.0146275
-0.0382056
-0.0938065
-0.215273
-0.458739
-0.900908
-1.61621
-2.62124
-3.79724
-4.84747
-5.37784
-1.08251e-07
-5.17368e-07
-1.85382e-06
-6.42339e-06
-2.16903e-05
-7.09966e-05
-0.00022385
-0.000676164
-0.0019471
-0.00531986
-0.0137233
-0.0332504
-0.0752347
-0.157949
-0.305414
-0.539326
-0.861323
-1.23037
-1.55329
-1.71237
-3.86247e-08
-1.87025e-07
-6.72714e-07
-2.31952e-06
-7.77085e-06
-2.52189e-05
-7.88054e-05
-0.000235788
-0.000672146
-0.00181678
-0.00463342
-0.0110916
-0.0247794
-0.0513368
-0.097923
-0.170577
-0.26887
-0.379601
-0.474885
-0.520876
-1.27055e-08
-6.1664e-08
-2.28021e-07
-7.87232e-07
-2.61936e-06
-8.42933e-06
-2.61176e-05
-7.74493e-05
-0.000218698
-0.000585245
-0.00147696
-0.00349674
-0.00772261
-0.0158105
-0.0297967
-0.0512897
-0.0799382
-0.111747
-0.138741
-0.151549
-3.55754e-09
-1.76183e-08
-7.1659e-08
-2.53263e-07
-8.33819e-07
-2.66172e-06
-8.18183e-06
-2.40581e-05
-6.73367e-05
-0.000178525
-0.000446164
-0.00104566
-0.0022853
-0.00462891
-0.00863051
-0.0147008
-0.0226886
-0.0314483
-0.0387961
-0.0422315
-3.38813e-10
-2.87991e-09
-1.98206e-08
-7.75882e-08
-2.53602e-07
-7.96889e-07
-2.42946e-06
-7.09305e-06
-1.96884e-05
-5.1741e-05
-0.000128147
-0.000297544
-0.000644087
-0.00129201
-0.0023858
-0.00402615
-0.00616048
-0.00847621
-0.0103994
-0.0112874
-5.0822e-10
3.38813e-10
-5.2516e-09
-2.35475e-08
-7.30142e-08
-2.26835e-07
-6.8525e-07
-1.99036e-06
-5.48251e-06
-1.42896e-05
-3.5096e-05
-8.07893e-05
-0.00017335
-0.00034467
-0.000630933
-0.00105587
-0.00160331
-0.00219177
-0.00267631
-0.00289758
6.77626e-10
1.35525e-09
-5.0822e-10
-6.26804e-09
-2.04982e-08
-6.01393e-08
-1.8262e-07
-5.31937e-07
-1.45842e-06
-3.77099e-06
-9.18777e-06
-2.0983e-05
-4.46602e-05
-8.80806e-05
-0.000159958
-0.000265677
-0.000400677
-0.000544606
-0.000662231
-0.00071543
6.77626e-10
2.71051e-09
1.52466e-09
-2.37169e-09
-5.59042e-09
-1.38913e-08
-4.43845e-08
-1.35864e-07
-3.72017e-07
-9.53929e-07
-2.30461e-06
-5.2245e-06
-1.10377e-05
-2.16058e-05
-3.89528e-05
-6.42552e-05
-9.631e-05
-0.000130237
-0.00015778
-0.000170132
3.38813e-10
2.03288e-09
1.69407e-09
-1.52466e-09
-1.86347e-09
-1.69407e-09
-8.63974e-09
-3.26955e-08
-9.23266e-08
-2.31918e-07
-5.5396e-07
-1.25005e-06
-2.62208e-06
-5.09626e-06
-9.12678e-06
-1.4963e-05
-2.23017e-05
-3.00183e-05
-3.62467e-05
-3.90182e-05
0
1.69407e-09
5.0822e-10
-1.35525e-09
0
8.47033e-10
0
-6.26804e-09
-2.21923e-08
-5.48877e-08
-1.27902e-07
-2.88499e-07
-6.00208e-07
-1.15739e-06
-2.06049e-06
-3.36035e-06
-4.98174e-06
-6.67801e-06
-8.04105e-06
-8.6416e-06
1.69407e-10
1.69407e-09
6.77626e-10
-1.18585e-09
-3.38813e-10
3.38813e-10
0
5.0822e-10
-3.04932e-09
-1.28749e-08
-2.86297e-08
-6.42051e-08
-1.32137e-07
-2.52246e-07
-4.48419e-07
-7.29295e-07
-1.07658e-06
-1.43674e-06
-1.72439e-06
-1.85111e-06
-1.35525e-09
1.69407e-10
1.52466e-09
0
5.0822e-10
-3.38813e-10
-5.0822e-10
1.35525e-09
-5.0822e-10
-2.87991e-09
-6.77626e-09
-1.42302e-08
-2.64274e-08
-5.2516e-08
-9.43595e-08
-1.53313e-07
-2.24803e-07
-2.99003e-07
-3.58634e-07
-3.854e-07
-1.35525e-09
-6.77626e-10
6.77626e-10
-8.47033e-10
-3.38813e-10
5.0822e-10
-1.69407e-10
1.01644e-09
1.69407e-09
0
-1.35525e-09
-3.04932e-09
-4.91279e-09
-1.01644e-08
-1.91429e-08
-3.11708e-08
-4.52316e-08
-5.96311e-08
-7.14896e-08
-8.14846e-08
3.38813e-10
1.35525e-09
1.18585e-09
-3.38813e-10
0
-1.35525e-09
-1.52466e-09
8.47033e-10
2.37169e-09
1.35525e-09
3.38813e-10
-5.0822e-10
-1.18585e-09
-2.37169e-09
-3.38813e-09
-5.92923e-09
-9.14796e-09
-1.13502e-08
-1.43996e-08
-1.71101e-08
-8.47033e-10
8.47033e-10
1.69407e-09
-1.01644e-09
-1.69407e-09
-2.03288e-09
0
1.35525e-09
1.18585e-09
2.03288e-09
1.35525e-09
-1.69407e-10
1.69407e-10
-1.69407e-10
-1.52466e-09
-3.38813e-09
-1.35525e-09
-8.47033e-10
-3.72694e-09
-2.87991e-09
-1.01644e-09
-1.52466e-09
6.77626e-10
0
-1.18585e-09
-8.47033e-10
-8.47033e-10
2.5411e-09
1.35525e-09
-5.0822e-10
8.47033e-10
0
0
5.0822e-10
-1.35525e-09
-8.47033e-10
1.18585e-09
5.0822e-10
-2.03288e-09
-1.69407e-09
-2.20229e-09
-2.03288e-09
0
1.69407e-09
3.38813e-10
-1.35525e-09
-3.38813e-10
5.0822e-10
3.38813e-10
3.38813e-10
-3.38813e-10
-3.38813e-10
2.03288e-09
1.18585e-09
-1.52466e-09
-5.0822e-10
5.0822e-10
0
-1.35525e-09
0
-1.35525e-09
-1.69407e-09
0
-3.38813e-10
8.47033e-10
6.77626e-10
-1.18585e-09
0
-5.0822e-10
5.0822e-10
0
-1.18585e-09
2.5411e-09
1.52466e-09
-1.18585e-09
-1.35525e-09
-3.38813e-10
3.38813e-10
-3.38813e-10
0
-8.47033e-10
8.47033e-10
6.77626e-10
-1.52466e-09
8.47033e-10
1.18585e-09
-8.47033e-10
-1.52466e-09
-8.47033e-10
3.38813e-10
5.0822e-10
6.77626e-10
1.69407e-10
-1.69407e-10
-3.38813e-10
0
8.47033e-10
3.38813e-10
-1.18585e-09
-8.47033e-10
-3.38813e-10
1.69407e-09
8.47033e-10
-1.35525e-09
0
2.20229e-09
1.18585e-09
-2.87991e-09
-5.0822e-10
1.35525e-09
0
0
8.47033e-10
-1.18585e-09
-5.0822e-10
-5.0822e-10
-3.38813e-10
1.35525e-09
8.47033e-10
-1.35525e-09
5.0822e-10
1.35525e-09
3.38813e-10
-1.18585e-09
3.38813e-10
1.69407e-09
-8.47033e-10
-1.18585e-09
3.38813e-10
0
5.0822e-10
3.38813e-10
-5.0822e-10
-6.77626e-10
-8.47033e-10
0
3.38813e-10
5.0822e-10
6.77626e-10
-1.18585e-09
5.0822e-10
1.18585e-09
0
-1.35525e-09
5.0822e-10
5.0822e-10
-5.0822e-10
1.69407e-09
-5.0822e-10
-8.47033e-10
1.01644e-09
3.38813e-10
0
-1.18585e-09
3.38813e-10
-8.47033e-10
-3.38813e-10
8.47033e-10
-5.0822e-10
8.47033e-10
-6.77626e-10
0
-8.47033e-10
0
1.18585e-09
8.47033e-10
0
0
-1.35525e-09
-8.47033e-10
1.69407e-10
3.38813e-10
0
5.0822e-10
1.69407e-09
-1.01644e-09
-1.52466e-09
0
6.77626e-10
-3.38813e-10
1.18585e-09
6.77626e-10
-6.77626e-10
6.77626e-10
5.0822e-10
-1.18585e-09
-1.35525e-09
-1.18585e-09
3.38813e-10
0
1.69407e-10
6.77626e-10
8.47033e-10
5.0822e-10
-3.38813e-10
-1.35525e-09
-3.38813e-10
0
-1.69407e-10
5.0822e-10
-1.01644e-09
5.0822e-10
5.0822e-10
-1.69407e-10
1.69407e-10
-1.01644e-09
-3.38813e-10
8.47033e-10
3.38813e-10
0
-3.38813e-10
0
1.18585e-09
8.47033e-10
-3.38813e-10
-1.35525e-09
-8.47033e-10
1.35525e-09
8.47033e-10
-1.69407e-09
-1.69407e-10
2.03288e-09
2.37169e-09
-1.18585e-09
-3.38813e-10
3.38813e-10
-3.38813e-10
-8.47033e-10
6.77626e-10
-6.77626e-10
0
1.18585e-09
-8.47033e-10
-1.52466e-09
8.47033e-10
1.18585e-09
-5.0822e-10
3.38813e-10
8.47033e-10
-1.52466e-09
-1.18585e-09
-5.0822e-10
5.0822e-10
0
0
8.47033e-10
-5.0822e-10
-1.18585e-09
2.03288e-09
1.35525e-09
-5.0822e-10
-3.38813e-10
-5.0822e-10
-8.47033e-10
1.86347e-09
6.77626e-10
-1.69407e-09
1.69407e-10
8.47033e-10
-1.35525e-09
-1.52466e-09
-5.0822e-10
8.47033e-10
-3.38813e-10
-5.0822e-10
1.35525e-09
1.18585e-09
-5.0822e-10
-1.52466e-09
6.77626e-10
1.01644e-09
-1.69407e-10
-1.18585e-09
5.0822e-10
1.18585e-09
-5.0822e-10
-8.47033e-10
-3.38813e-10
3.38813e-10
-3.38813e-10
1.35525e-09
1.69407e-09
-3.38813e-10
-1.69407e-10
5.0822e-10
0
-8.47033e-10
-1.35525e-09
0
1.01644e-09
6.77626e-10
0
0
5.0822e-10
-8.47033e-10
0
-8.47033e-10
-5.0822e-10
5.0822e-10
0
5.0822e-10
1.52466e-09
1.18585e-09
-3.38813e-10
3.38813e-10
-3.38813e-10
-8.47033e-10
-6.77626e-10
0
1.01644e-09
8.47033e-10
0
-3.38813e-10
-3.38813e-10
-8.47033e-10
3.38813e-10
3.38813e-10
0
1.69407e-10
-8.47033e-10
8.47033e-10
1.35525e-09
1.52466e-09
1.18585e-09
1.69407e-10
-1.69407e-10
-6.77626e-10
0
3.38813e-10
0
3.38813e-10
-6.77626e-10
-1.35525e-09
-3.38813e-10
3.38813e-10
8.47033e-10
0
-6.77626e-10
-1.69407e-10
8.47033e-10
5.0822e-10
-5.0822e-10
0
8.47033e-10
1.69407e-10
-1.69407e-09
-1.01644e-09
1.69407e-09
1.69407e-10
-8.47033e-10
6.77626e-10
0
-8.47033e-10
5.0822e-10
-3.38813e-10
8.47033e-10
0
-5.0822e-10
0
0
5.0822e-10
3.38813e-10
0
0
3.38813e-10
-3.38813e-10
-3.38813e-10
3.38813e-10
0
-5.0822e-10
1.35525e-09
0
-8.47033e-10
-1.18585e-09
-8.47033e-10
3.38813e-10
-6.77626e-10
6.77626e-10
1.69407e-10
3.38813e-10
-8.47033e-10
-1.52466e-09
-5.0822e-10
-6.77626e-10
6.77626e-10
-3.38813e-10
-1.35525e-09
-3.38813e-10
8.47033e-10
3.38813e-10
5.0822e-10
-8.47033e-10
-5.0822e-10
-3.38813e-10
-8.47033e-10
0
8.47033e-10
1.18585e-09
-3.38813e-10
3.38813e-10
)
;

boundaryField
{
    topWall
    {
        type            calculated;
        value           nonuniform List<scalar> 
20
(
-8.47033e-10
-1.52466e-09
-5.0822e-10
-6.77626e-10
6.77626e-10
-3.38813e-10
-1.35525e-09
-3.38813e-10
8.47033e-10
3.38813e-10
5.0822e-10
-8.47033e-10
-5.0822e-10
-3.38813e-10
-8.47033e-10
0
8.47033e-10
1.18585e-09
-3.38813e-10
3.38813e-10
)
;
    }
    bottomWall
    {
        type            calculated;
        value           nonuniform List<scalar> 
20
(
-4.43811e-06
-2.23081e-05
-8.55322e-05
-0.000320987
-0.00118645
-0.00429385
-0.0151441
-0.0518896
-0.172395
-0.554903
-1.73107
-5.24381
-15.4885
-44.9423
-129.727
-379.879
-1159.92
-3812.16
-13828
-55589.1
)
;
    }
    sideWallL
    {
        type            symmetry;
    }
    sideWallR
    {
        type            calculated;
        value           nonuniform List<scalar> 
45
(
-89393.7
-30731.1
-11961.3
-4941.89
-2065.4
-848.56
-337.45
-128.857
-47.0613
-16.4118
-5.46288
-1.73634
-0.527426
-0.153282
-0.0426754
-0.0113973
-0.00292392
-0.000721537
-0.000171503
-3.93169e-05
-8.70443e-06
-1.8639e-06
-3.88809e-07
-8.58336e-08
-1.81899e-08
-1.7053e-09
5.68434e-10
1.7053e-09
5.68434e-10
-1.13687e-09
-3.97904e-09
-3.41061e-09
1.7053e-09
-3.41061e-09
1.13687e-09
-2.27374e-09
-3.41061e-09
-3.97904e-09
0
5.68434e-10
-1.13687e-09
2.27374e-09
0
1.7053e-09
1.13687e-09
)
;
    }
    frontAndBack
    {
        type            empty;
    }
}


// ************************************************************************* //
