/*--------------------------------*- C++ -*----------------------------------*\
  =========                 |
  \\      /  F ield         | OpenFOAM: The Open Source CFD Toolbox
   \\    /   O peration     | Website:  https://openfoam.org
    \\  /    A nd           | Version:  7
     \\/     M anipulation  |
\*---------------------------------------------------------------------------*/
FoamFile
{
    version     2.0;
    format      ascii;
    class       volScalarField;
    location    "2";
    object      gradTy;
}
// * * * * * * * * * * * * * * * * * * * * * * * * * * * * * * * * * * * * * //

dimensions      [0 -1 0 1 0 0 0];

internalField   nonuniform List<scalar> 
900
(
-41208.4
-41208.4
-41208.4
-41208.4
-41208.4
-41208.4
-41208.5
-41208.5
-41208.6
-41209.1
-41210.6
-41215.2
-41228.7
-41267.6
-41376.7
-41676.4
-42493.9
-44740.4
-51090.3
-69968.8
-26031.1
-26031.1
-26031.1
-26031.1
-26031.2
-26031.2
-26031.2
-26031.2
-26031.3
-26031.6
-26032.4
-26035
-26042.1
-26061.1
-26108.3
-26215.1
-26418.8
-26645
-26014.3
-19358.1
-15499
-15499
-15499
-15499
-15499
-15499
-15499
-15499
-15499.1
-15499.1
-15499.2
-15499.3
-15499.1
-15496.7
-15484.2
-15430.9
-15231.6
-14549.8
-12410.6
-6447.31
-8674.12
-8674.12
-8674.12
-8674.12
-8674.12
-8674.12
-8674.11
-8674.1
-8674.06
-8673.93
-8673.48
-8672.02
-8667.46
-8653.73
-8613.89
-8503.11
-8209.48
-7477.08
-5801.08
-2473.97
-4556.26
-4556.26
-4556.26
-4556.26
-4556.26
-4556.26
-4556.25
-4556.23
-4556.17
-4555.97
-4555.35
-4553.46
-4547.96
-4532.71
-4492.45
-4391.91
-4156.43
-3647.15
-2658.04
-1023.33
-2245.37
-2245.37
-2245.37
-2245.37
-2245.37
-2245.36
-2245.36
-2245.34
-2245.29
-2245.11
-2244.56
-2242.95
-2238.49
-2226.72
-2197.42
-2129.11
-1981.52
-1690.85
-1183.02
-431.988
-1038.69
-1038.69
-1038.69
-1038.69
-1038.69
-1038.69
-1038.68
-1038.67
-1038.63
-1038.5
-1038.12
-1037.04
-1034.12
-1026.72
-1009.09
-970.075
-890.655
-744.44
-507.001
-179.926
-451.562
-451.562
-451.562
-451.562
-451.562
-451.562
-451.559
-451.551
-451.526
-451.448
-451.223
-450.597
-448.959
-444.931
-435.683
-416.032
-377.835
-310.979
-207.955
-72.5972
-184.798
-184.798
-184.798
-184.798
-184.797
-184.797
-184.796
-184.791
-184.778
-184.737
-184.619
-184.299
-183.483
-181.529
-177.173
-168.223
-151.449
-123.21
-81.3448
-28.1112
-71.328
-71.328
-71.328
-71.328
-71.3279
-71.3277
-71.3271
-71.325
-71.3183
-71.2987
-71.2434
-71.0963
-70.728
-69.8659
-67.9929
-64.2485
-57.4361
-46.3119
-30.2943
-10.3996
-26.0207
-26.0207
-26.0207
-26.0207
-26.0207
-26.0206
-26.0203
-26.0193
-26.0164
-26.0078
-25.9841
-25.9221
-25.7696
-25.4196
-24.6755
-23.2219
-20.6407
-16.5274
-10.7371
-3.66887
-8.99106
-8.99106
-8.99106
-8.99105
-8.99104
-8.99101
-8.99088
-8.99049
-8.9893
-8.98587
-8.97649
-8.9523
-8.89377
-8.7618
-8.48637
-7.95882
-7.04074
-5.60645
-3.6231
-1.23386
-2.94901
-2.94901
-2.94901
-2.94901
-2.94901
-2.94899
-2.94895
-2.9488
-2.94835
-2.94707
-2.94361
-2.93482
-2.91386
-2.86731
-2.77172
-2.59169
-2.28368
-1.81031
-1.16506
-0.395763
-0.920115
-0.920115
-0.920114
-0.920114
-0.920112
-0.920107
-0.92009
-0.920036
-0.919878
-0.919432
-0.91824
-0.915244
-0.908194
-0.89275
-0.861486
-0.803458
-0.70561
-0.557277
-0.357457
-0.121188
-0.273654
-0.273654
-0.273654
-0.273654
-0.273654
-0.273652
-0.273646
-0.273628
-0.273576
-0.273429
-0.273042
-0.27208
-0.269843
-0.265002
-0.255324
-0.237591
-0.208061
-0.163813
-0.10479
-0.0354713
-0.0777357
-0.0777357
-0.0777356
-0.0777356
-0.0777354
-0.0777348
-0.077733
-0.0777273
-0.0777109
-0.0776655
-0.0775467
-0.0772544
-0.0765818
-0.0751425
-0.0722976
-0.0671429
-0.0586526
-0.0460576
-0.0293961
-0.00993787
-0.0211309
-0.0211309
-0.0211309
-0.0211309
-0.0211308
-0.0211307
-0.0211301
-0.0211284
-0.0211235
-0.0211102
-0.0210756
-0.0209912
-0.020799
-0.0203918
-0.0195951
-0.018166
-0.0158346
-0.0124062
-0.00790301
-0.00266895
-0.00550654
-0.00550654
-0.00550654
-0.00550653
-0.00550652
-0.00550646
-0.0055063
-0.00550582
-0.00550445
-0.00550071
-0.00549111
-0.00546792
-0.00541555
-0.00530561
-0.00509248
-0.00471363
-0.00410087
-0.00320663
-0.00203934
-0.000688104
-0.00137798
-0.00137798
-0.00137798
-0.00137798
-0.00137797
-0.00137796
-0.00137791
-0.00137778
-0.00137741
-0.00137642
-0.00137388
-0.00136778
-0.00135414
-0.00132575
-0.00127116
-0.00117491
-0.00102044
-0.000796539
-0.000505856
-0.000170555
-0.000331672
-0.000331673
-0.000331673
-0.000331673
-0.000331672
-0.000331668
-0.000331657
-0.000331623
-0.000331528
-0.000331274
-0.000330629
-0.000329097
-0.000325693
-0.00031866
-0.000305244
-0.000281768
-0.000244349
-0.000190439
-0.00012079
-4.06996e-05
-7.69031e-05
-7.69028e-05
-7.69035e-05
-7.69038e-05
-7.69035e-05
-7.6902e-05
-7.69013e-05
-7.68938e-05
-7.68679e-05
-7.68042e-05
-7.66489e-05
-7.6279e-05
-7.54632e-05
-7.37888e-05
-7.06192e-05
-6.51104e-05
-5.63858e-05
-4.38855e-05
-2.78042e-05
-9.36327e-06
-1.72005e-05
-1.72021e-05
-1.72022e-05
-1.7201e-05
-1.72009e-05
-1.72005e-05
-1.72019e-05
-1.72007e-05
-1.71946e-05
-1.71792e-05
-1.71428e-05
-1.70584e-05
-1.68682e-05
-1.64846e-05
-1.57635e-05
-1.45181e-05
-1.25561e-05
-9.76138e-06
-6.17724e-06
-2.07879e-06
-3.71543e-06
-3.71695e-06
-3.71746e-06
-3.71763e-06
-3.71661e-06
-3.71729e-06
-3.71712e-06
-3.71729e-06
-3.71644e-06
-3.71255e-06
-3.7034e-06
-3.68544e-06
-3.64224e-06
-3.55805e-06
-3.40033e-06
-3.1286e-06
-2.70237e-06
-2.09725e-06
-1.32493e-06
-4.44523e-07
-7.78423e-07
-7.77068e-07
-7.76729e-07
-7.76899e-07
-7.77407e-07
-7.77915e-07
-7.78423e-07
-7.79101e-07
-7.78423e-07
-7.7639e-07
-7.74188e-07
-7.68767e-07
-7.60805e-07
-7.43526e-07
-7.10661e-07
-6.52893e-07
-5.63277e-07
-4.36561e-07
-2.75963e-07
-9.28348e-08
-1.58056e-07
-1.57379e-07
-1.5704e-07
-1.56362e-07
-1.56532e-07
-1.58056e-07
-1.58903e-07
-1.57718e-07
-1.58903e-07
-1.58395e-07
-1.56532e-07
-1.55515e-07
-1.53652e-07
-1.50602e-07
-1.43487e-07
-1.32984e-07
-1.16044e-07
-8.89385e-08
-5.74288e-08
-2.0837e-08
-2.81215e-08
-2.96462e-08
-3.0832e-08
-3.01544e-08
-3.10014e-08
-3.10014e-08
-3.06626e-08
-3.03238e-08
-2.89685e-08
-3.10014e-08
-3.13402e-08
-3.06626e-08
-3.04932e-08
-2.96462e-08
-2.77827e-08
-2.76133e-08
-2.21923e-08
-1.74489e-08
-1.05032e-08
-4.74338e-09
-3.89635e-09
-5.0822e-09
-6.94567e-09
-6.77626e-09
-4.57398e-09
-4.23516e-09
-4.23516e-09
-4.91279e-09
-4.74338e-09
-5.59042e-09
-6.77626e-09
-6.77626e-09
-7.45389e-09
-4.74338e-09
-5.75982e-09
-5.0822e-09
-3.04932e-09
-3.04932e-09
-2.37169e-09
-8.47033e-10
-6.77626e-10
-1.18585e-09
-8.47033e-10
-1.69407e-09
-1.18585e-09
3.38813e-10
5.0822e-10
3.38813e-10
-2.5411e-09
-1.69407e-09
-1.18585e-09
-2.5411e-09
-1.86347e-09
-3.38813e-10
-1.18585e-09
0
-1.52466e-09
-1.69407e-09
-1.35525e-09
0
-8.47033e-10
1.01644e-09
2.37169e-09
1.01644e-09
-5.0822e-10
1.35525e-09
2.03288e-09
8.47033e-10
0
-3.38813e-10
0
1.69407e-10
1.01644e-09
-1.18585e-09
-8.47033e-10
0
0
5.0822e-10
0
8.47033e-10
-2.20229e-09
-1.18585e-09
5.0822e-10
0
-3.38813e-10
-8.47033e-10
1.69407e-09
1.01644e-09
-1.01644e-09
8.47033e-10
3.38813e-10
6.77626e-10
1.18585e-09
-1.35525e-09
-1.01644e-09
-3.38813e-10
-8.47033e-10
-5.0822e-10
3.38813e-10
1.01644e-09
-1.18585e-09
0
-3.38813e-10
-1.69407e-10
-3.38813e-10
-5.0822e-10
0
-1.69407e-10
3.38813e-10
8.47033e-10
-3.38813e-10
8.47033e-10
-5.0822e-10
0
-3.38813e-10
-5.0822e-10
-5.0822e-10
-8.47033e-10
-3.38813e-10
3.38813e-10
0
8.47033e-10
-5.0822e-10
-3.38813e-10
-1.69407e-10
1.69407e-10
-2.5411e-09
-1.52466e-09
2.03288e-09
-1.18585e-09
-3.38813e-10
1.69407e-10
0
-6.77626e-10
-3.38813e-10
0
-3.38813e-10
-3.38813e-10
-8.47033e-10
-1.35525e-09
8.47033e-10
-3.38813e-10
-8.47033e-10
-1.18585e-09
1.69407e-10
-1.69407e-10
-3.38813e-10
6.77626e-10
5.0822e-10
-1.01644e-09
-1.69407e-10
-1.35525e-09
-3.38813e-10
-8.47033e-10
8.47033e-10
1.69407e-09
-1.69407e-10
3.38813e-10
-8.47033e-10
1.69407e-10
1.18585e-09
1.69407e-09
8.47033e-10
8.47033e-10
2.37169e-09
8.47033e-10
8.47033e-10
0
-1.35525e-09
8.47033e-10
-6.77626e-10
-3.38813e-10
-3.38813e-10
6.77626e-10
1.18585e-09
5.0822e-10
5.0822e-10
1.69407e-10
-3.38813e-10
0
-3.38813e-10
-8.47033e-10
3.38813e-10
8.47033e-10
0
-3.38813e-10
-1.35525e-09
-8.47033e-10
-8.47033e-10
5.0822e-10
0
0
3.38813e-10
1.35525e-09
3.38813e-10
-1.01644e-09
3.38813e-10
-8.47033e-10
1.69407e-09
-1.69407e-10
-1.18585e-09
-2.5411e-09
0
6.77626e-10
-1.52466e-09
-3.38813e-10
0
5.0822e-10
3.38813e-10
5.0822e-10
0
6.77626e-10
0
-1.18585e-09
-2.03288e-09
0
1.69407e-10
0
1.18585e-09
1.01644e-09
0
0
-1.18585e-09
-6.77626e-10
-5.0822e-10
-1.01644e-09
1.18585e-09
-1.18585e-09
-6.77626e-10
8.47033e-10
8.47033e-10
1.69407e-10
3.38813e-10
-1.01644e-09
-1.18585e-09
1.01644e-09
6.77626e-10
3.38813e-10
-5.0822e-10
3.38813e-10
1.52466e-09
3.38813e-10
-1.18585e-09
-8.47033e-10
-5.0822e-10
-1.01644e-09
1.69407e-10
8.47033e-10
3.38813e-10
-1.01644e-09
1.18585e-09
3.38813e-10
-3.38813e-10
0
1.69407e-09
0
5.0822e-10
-5.0822e-10
-3.38813e-10
-5.0822e-10
-8.47033e-10
1.69407e-09
1.18585e-09
8.47033e-10
8.47033e-10
1.52466e-09
0
1.52466e-09
-3.38813e-10
-6.77626e-10
-5.0822e-10
5.0822e-10
0
8.47033e-10
1.18585e-09
-1.69407e-09
5.0822e-10
-6.77626e-10
-3.38813e-10
-1.18585e-09
-1.69407e-09
3.38813e-10
8.47033e-10
6.77626e-10
1.35525e-09
1.18585e-09
-1.69407e-10
-1.18585e-09
-3.38813e-10
3.38813e-10
0
0
3.38813e-10
1.01644e-09
-5.0822e-10
-8.47033e-10
3.38813e-10
3.38813e-10
3.38813e-10
3.38813e-10
-1.18585e-09
-1.86347e-09
-8.47033e-10
-3.38813e-10
-3.38813e-10
-3.38813e-10
-3.38813e-10
0
1.18585e-09
5.0822e-10
-3.38813e-10
3.38813e-10
-8.47033e-10
-1.35525e-09
-1.69407e-09
-1.69407e-10
-8.47033e-10
3.38813e-10
-5.0822e-10
-6.77626e-10
1.18585e-09
8.47033e-10
-1.18585e-09
0
0
3.38813e-10
-1.35525e-09
0
6.77626e-10
3.38813e-10
-8.47033e-10
-3.38813e-10
-6.77626e-10
-8.47033e-10
0
-3.38813e-10
3.38813e-10
0
-6.77626e-10
-1.69407e-10
2.20229e-09
1.86347e-09
1.18585e-09
0
3.38813e-10
-3.38813e-10
0
0
1.69407e-10
-3.38813e-10
0
6.77626e-10
6.77626e-10
1.35525e-09
-3.38813e-10
3.38813e-10
-6.77626e-10
-3.38813e-10
6.77626e-10
0
1.69407e-09
5.0822e-10
8.47033e-10
-3.38813e-10
-5.0822e-10
-3.38813e-10
1.01644e-09
-5.0822e-10
-8.47033e-10
-1.69407e-10
3.38813e-10
0
-3.38813e-10
0
-8.47033e-10
-6.77626e-10
-1.86347e-09
-3.38813e-10
0
-3.38813e-10
1.52466e-09
3.38813e-10
-3.38813e-10
-1.69407e-10
-6.77626e-10
0
-5.0822e-10
-1.18585e-09
-1.18585e-09
-3.38813e-10
-3.38813e-10
-1.18585e-09
-1.35525e-09
-8.47033e-10
-3.38813e-10
-8.47033e-10
-6.77626e-10
8.47033e-10
0
3.38813e-10
)
;

boundaryField
{
    topWall
    {
        type            calculated;
        value           uniform 0;
    }
    bottomWall
    {
        type            calculated;
        value           nonuniform List<scalar> 
20
(
-50065.9
-50065.9
-50065.9
-50065.9
-50065.9
-50065.9
-50065.9
-50066
-50066.1
-50066.7
-50068.4
-50073.6
-50089.3
-50135.6
-50269.1
-50654.5
-51788.6
-55294.2
-67037.3
-110606
)
;
    }
    sideWallL
    {
        type            symmetry;
    }
    sideWallR
    {
        type            calculated;
        value           nonuniform List<scalar> 
45
(
-69968.8
-19358.1
-6447.31
-2473.97
-1023.33
-431.988
-179.926
-72.5972
-28.1112
-10.3996
-3.66887
-1.23386
-0.395763
-0.121188
-0.0354713
-0.00993787
-0.00266895
-0.000688104
-0.000170555
-4.06996e-05
-9.36327e-06
-2.07879e-06
-4.44523e-07
-9.28348e-08
-2.0837e-08
-4.74338e-09
-8.47033e-10
0
8.47033e-10
1.01644e-09
3.38813e-10
-1.35525e-09
1.69407e-10
0
-1.69407e-10
1.01644e-09
3.38813e-10
-5.0822e-10
-1.18585e-09
3.38813e-10
-6.77626e-10
-1.69407e-10
0
-3.38813e-10
3.38813e-10
)
;
    }
    frontAndBack
    {
        type            empty;
    }
}


// ************************************************************************* //
