/*--------------------------------*- C++ -*----------------------------------*\
  =========                 |
  \\      /  F ield         | OpenFOAM: The Open Source CFD Toolbox
   \\    /   O peration     | Website:  https://openfoam.org
    \\  /    A nd           | Version:  7
     \\/     M anipulation  |
\*---------------------------------------------------------------------------*/
FoamFile
{
    version     2.0;
    format      ascii;
    class       volScalarField;
    location    "27";
    object      gradTy;
}
// * * * * * * * * * * * * * * * * * * * * * * * * * * * * * * * * * * * * * //

dimensions      [0 -1 0 1 0 0 0];

internalField   nonuniform List<scalar> 
900
(
-192271
-192421
-192733
-193227
-193938
-194921
-196248
-198026
-200407
-203607
-207945
-213900
-222222
-234129
-251724
-278886
-323425
-402728
-559981
-913136
-167816
-167953
-168237
-168686
-169332
-170219
-171411
-172998
-175102
-177899
-181633
-186655
-193472
-202824
-215775
-233750
-258140
-287799
-307322
-237878
-146351
-146469
-146713
-147097
-147646
-148393
-149386
-150690
-152387
-154589
-157438
-161110
-165809
-171722
-178889
-186806
-193375
-192263
-167225
-84881.5
-127430
-127524
-127719
-128024
-128454
-129032
-129786
-130752
-131971
-133489
-135345
-137559
-140085
-142723
-144934
-145466
-141662
-128401
-97296.6
-39390.6
-110605
-110675
-110815
-111033
-111336
-111733
-112234
-112849
-113582
-114423
-115335
-116227
-116906
-116993
-115784
-112035
-103700
-87795.6
-60987.8
-22140.4
-95656
-95699.2
-95786
-95917.4
-96093.6
-96313.4
-96572.2
-96858.1
-97146.5
-97390.6
-97505.5
-97344.3
-96658.3
-95041.3
-91853.3
-86141.4
-76613.3
-61804
-40697
-14046.7
-82400
-82418.7
-82454.9
-82505.7
-82565.8
-82625.8
-82669.9
-82671.9
-82589.5
-82355.3
-81863.9
-80953.5
-79380.5
-76790.2
-72689.3
-66439.7
-57317.1
-44702.5
-28478.4
-9593.46
-70679
-70676.1
-70667.9
-70648.8
-70609.5
-70535.1
-70403
-70178.9
-69812.5
-69229.5
-68323.2
-66942.5
-64879.1
-61856.5
-57529.7
-51507.8
-43423.7
-33074.4
-20632.8
-6862.6
-60352.3
-60331.6
-60286.8
-60210.9
-60092.2
-59912.9
-59647.1
-59258
-58693.8
-57883.2
-56729.4
-55104.3
-52843.9
-49748.4
-45592.3
-40153
-33266.7
-24915.1
-15329.4
-5061.39
-51291.6
-51257.2
-51184.6
-51066
-50888.7
-50634.3
-50276.3
-49779.1
-49094.3
-48158.5
-46890.1
-45187.5
-42928.9
-39977.3
-36193.5
-31460.5
-25721.6
-19030.5
-11598.5
-3811.97
-43378.6
-43334.5
-43242.6
-43094.9
-42878.9
-42576.8
-42163.9
-41607.5
-40865.5
-39884.6
-38599.6
-36933.3
-34799.3
-32107.9
-28777.8
-24754
-20032.9
-14688.3
-8892.04
-2913.47
-36502.6
-36452.6
-36349
-36184.4
-35947.2
-35621
-35183.9
-34607.8
-33857.2
-32889.5
-31654.4
-30095.7
-28154
-25773.1
-22908.5
-19540.4
-15688.2
-11424.3
-6882
-2249.98
-30559.2
-30506.5
-30397.9
-30226.7
-29982.6
-29651.4
-29214.3
-28647.8
-27923.6
-27008.4
-25864.7
-24452.7
-22733.1
-20672.2
-18248.2
-15459.6
-12333.9
-8934.36
-5362.04
-1750.24
-25450.4
-25397.7
-25289.3
-25119.7
-24879.8
-24557.8
-24138.2
-23602.1
-22927.2
-22088.4
-21058.5
-19810
-18317.9
-16563
-14537
-12247.2
-9721.82
-7013.02
-4196.79
-1368.21
-21083.9
-21033.1
-20929
-20766.9
-20539.4
-20236.7
-19846.4
-19353.6
-18741.5
-17991.3
-17083.9
-16000.8
-14726.7
-13251.7
-11574.8
-9706.96
-7673.88
-5517.32
-3294.19
-1072.92
-17373.5
-17325.9
-17228.9
-17078.4
-16868.5
-16591.5
-16237.5
-15795.3
-15252
-14594.3
-13808.9
-12883.8
-11810
-10583.3
-9206.57
-7691.49
-6060.13
-4345.32
-2589.67
-842.807
-14239
-14195.6
-14107.3
-13970.9
-13781.8
-13533.8
-13219.5
-12830.2
-12356.8
-11789.7
-11119.9
-10339.9
-9444.83
-8433.86
-7311.5
-6088.78
-4783.98
-3422.67
-2036.73
-662.433
-11606.7
-11568
-11489.3
-11368.2
-11201.1
-10983.2
-10709
-10372.2
-9965.99
-9483.87
-8919.88
-8269.54
-7530.6
-6704.02
-5794.81
-4812.69
-3772.52
-2694.04
-1601.15
-520.487
-9409.42
-9375.46
-9306.6
-9200.94
-9055.74
-8867.48
-8631.99
-8344.69
-8000.87
-7596.05
-7126.46
-6589.58
-5984.75
-5313.78
-4581.54
-3796.31
-2969.93
-2117.59
-1257.23
-408.507
-7586.17
-7556.87
-7497.55
-7406.79
-7282.54
-7122.18
-6922.69
-6680.81
-6393.27
-6057.11
-5670.02
-5230.75
-4739.55
-4198.53
-3612.11
-2987.14
-2332.96
-1661.23
-985.414
-320.063
-6082.38
-6057.47
-6007.09
-5930.21
-5825.31
-5690.48
-5523.57
-5322.29
-5084.43
-4808.07
-4491.9
-4135.45
-3739.41
-3305.94
-2838.83
-2343.66
-1827.76
-1300.03
-770.569
-250.198
-4849.57
-4828.65
-4786.42
-4722.11
-4634.62
-4522.6
-4384.51
-4218.79
-4023.98
-3798.89
-3542.82
-3255.79
-2938.68
-2593.48
-2223.39
-1832.87
-1427.62
-1014.43
-600.895
-195.05
-3845
-3827.65
-3792.67
-3739.49
-3667.35
-3575.27
-3462.21
-3327.11
-3169.03
-2987.27
-2781.53
-2552.08
-2299.84
-2026.56
-1734.88
-1428.32
-1111.32
-789.01
-467.103
-151.582
-3031.38
-3017.15
-2988.48
-2944.99
-2886.11
-2811.19
-2719.52
-2610.39
-2483.22
-2337.64
-2173.6
-1991.45
-1792.09
-1577
-1348.32
-1108.83
-861.918
-611.493
-361.832
-117.394
-2376.41
-2364.86
-2341.61
-2306.38
-2258.8
-2198.42
-2124.76
-2037.38
-1935.92
-1820.22
-1690.36
-1546.75
-1390.16
-1221.85
-1043.51
-857.314
-665.856
-472.092
-279.225
-90.5746
-1852.37
-1843.08
-1824.4
-1796.14
-1758.05
-1709.82
-1651.14
-1581.74
-1501.44
-1410.17
-1308.1
-1195.6
-1073.37
-942.411
-804.068
-660.021
-512.248
-362.978
-214.606
-69.6015
-1435.63
-1428.23
-1413.36
-1390.9
-1360.67
-1322.47
-1276.11
-1221.44
-1158.35
-1086.88
-1007.19
-919.638
-824.8
-723.484
-616.741
-505.863
-392.352
-277.881
-164.238
-53.2577
-1106.26
-1100.42
-1088.68
-1070.98
-1047.18
-1017.18
-980.846
-938.097
-888.902
-833.321
-771.523
-703.819
-630.678
-552.741
-470.825
-385.916
-299.148
-211.776
-125.131
-40.5704
-847.534
-842.958
-833.776
-819.933
-801.359
-777.976
-749.717
-716.54
-678.452
-635.525
-587.916
-535.888
-479.816
-420.206
-357.684
-293
-227.008
-160.642
-94.8923
-30.7625
-645.549
-641.994
-634.867
-624.131
-609.745
-591.661
-569.844
-544.283
-514.999
-482.068
-445.628
-405.894
-363.165
-317.832
-270.375
-221.359
-171.425
-121.266
-71.6157
-23.214
-488.832
-486.093
-480.604
-472.342
-461.283
-447.401
-430.681
-411.126
-388.766
-363.67
-335.957
-305.8
-273.432
-239.155
-203.333
-166.39
-128.803
-91.0871
-53.7815
-17.4313
-367.989
-365.895
-361.699
-355.389
-346.95
-336.372
-323.649
-308.792
-291.834
-272.835
-251.893
-229.145
-204.772
-179.005
-152.116
-124.424
-96.2821
-68.0697
-40.1834
-13.0228
-275.384
-273.794
-270.61
-265.826
-259.434
-251.43
-241.816
-230.606
-217.831
-203.542
-187.816
-170.763
-152.52
-133.262
-113.194
-92.551
-71.5943
-50.6031
-29.8673
-9.67872
-204.854
-203.656
-201.258
-197.658
-192.851
-186.837
-179.623
-171.222
-161.662
-150.984
-139.25
-126.545
-112.972
-98.6639
-83.7719
-68.4704
-52.9507
-37.4172
-22.0812
-7.15505
-151.467
-150.571
-148.778
-146.087
-142.498
-138.012
-132.635
-126.382
-119.275
-111.348
-102.649
-93.2415
-83.2055
-72.6378
-61.6515
-50.3742
-38.9458
-27.5151
-16.2354
-5.26045
-111.299
-110.634
-109.303
-107.307
-104.645
-101.322
-97.3435
-92.7211
-87.4733
-81.6271
-75.2194
-68.2982
-60.9233
-53.1662
-45.1099
-36.8477
-28.4812
-20.1181
-11.8693
-3.84555
-81.2526
-80.7624
-79.782
-78.3118
-76.3533
-73.9095
-70.9863
-67.5933
-63.7454
-59.4634
-54.7753
-49.7171
-44.3329
-38.6754
-32.8051
-26.7895
-20.7023
-14.6209
-8.62504
-2.79429
-58.8982
-58.5398
-57.8232
-56.7492
-55.3191
-53.5359
-51.4047
-48.9331
-46.1328
-43.0197
-39.6148
-35.9447
-32.0418
-27.9444
-23.6964
-19.3465
-14.9476
-10.555
-6.22592
-2.01694
-42.3406
-42.0809
-41.562
-40.7844
-39.7496
-38.4602
-36.9201
-35.1355
-33.1153
-30.8714
-28.4194
-25.7788
-22.9731
-20.03
-16.9809
-13.8608
-10.7073
-7.55979
-4.45875
-1.44438
-30.1088
-29.9229
-29.5514
-28.995
-28.2549
-27.3331
-26.2328
-24.9588
-23.5177
-21.9183
-20.172
-18.2928
-16.2977
-14.2063
-12.0412
-9.82683
-7.58988
-5.35812
-3.15995
-1.02361
-21.0636
-20.9328
-20.6714
-20.28
-19.7596
-19.1117
-18.3389
-17.4446
-16.4337
-15.3125
-14.0891
-12.7736
-11.3779
-9.91577
-8.40292
-6.8565
-5.29498
-3.73762
-2.20411
-0.713955
-14.3211
-14.2317
-14.0531
-13.7858
-13.4304
-12.9883
-12.4611
-11.8513
-11.1624
-10.3987
-9.56605
-8.67116
-7.72222
-6.72869
-5.70117
-4.65131
-3.59159
-2.53501
-1.49482
-0.484189
-9.18943
-9.13185
-9.01682
-8.84466
-8.61587
-8.33128
-7.99207
-7.59991
-7.15705
-6.6664
-6.13161
-5.55713
-4.94824
-4.311
-3.65221
-2.97933
-2.30033
-1.6235
-0.957288
-0.310069
-5.11567
-5.08353
-5.01933
-4.92324
-4.79558
-4.63681
-4.44763
-4.22897
-3.98212
-3.70872
-3.41082
-3.09093
-2.75197
-2.39733
-2.0308
-1.65652
-1.27891
-0.90257
-0.532178
-0.172372
-1.64066
-1.63034
-1.60972
-1.57886
-1.53787
-1.4869
-1.42616
-1.35598
-1.27676
-1.18904
-1.09347
-0.990856
-0.882149
-0.76843
-0.650915
-0.530929
-0.409888
-0.289264
-0.170555
-0.055242
)
;

boundaryField
{
    topWall
    {
        type            calculated;
        value           uniform 0;
    }
    bottomWall
    {
        type            calculated;
        value           nonuniform List<scalar> 
20
(
-205277
-205433
-205754
-206265
-207001
-208018
-209395
-211242
-213721
-217062
-221610
-227889
-236732
-249539
-268838
-299673
-353536
-461136
-718949
-1.46894e+06
)
;
    }
    sideWallL
    {
        type            symmetry;
    }
    sideWallR
    {
        type            calculated;
        value           nonuniform List<scalar> 
45
(
-913136
-237878
-84881.5
-39390.6
-22140.4
-14046.7
-9593.46
-6862.6
-5061.39
-3811.97
-2913.47
-2249.98
-1750.24
-1368.21
-1072.92
-842.807
-662.433
-520.487
-408.507
-320.063
-250.198
-195.05
-151.582
-117.394
-90.5746
-69.6015
-53.2577
-40.5704
-30.7625
-23.214
-17.4313
-13.0228
-9.67872
-7.15505
-5.26045
-3.84555
-2.79429
-2.01694
-1.44438
-1.02361
-0.713955
-0.484189
-0.310069
-0.172372
-0.055242
)
;
    }
    frontAndBack
    {
        type            empty;
    }
}


// ************************************************************************* //
