/*--------------------------------*- C++ -*----------------------------------*\
  =========                 |
  \\      /  F ield         | OpenFOAM: The Open Source CFD Toolbox
   \\    /   O peration     | Website:  https://openfoam.org
    \\  /    A nd           | Version:  7
     \\/     M anipulation  |
\*---------------------------------------------------------------------------*/
FoamFile
{
    version     2.0;
    format      ascii;
    class       volScalarField;
    location    "27";
    object      gradTx;
}
// * * * * * * * * * * * * * * * * * * * * * * * * * * * * * * * * * * * * * //

dimensions      [0 -1 0 1 0 0 0];

internalField   nonuniform List<scalar> 
900
(
-38.8445
-119.247
-208.049
-311.752
-438.36
-598.326
-805.945
-1081.54
-1455.09
-1972.42
-2706.68
-3780.45
-5412.54
-8026.43
-12533.4
-21174.6
-40365.9
-91353.1
-251951
-803028
-111.611
-342.533
-597.264
-894.166
-1255.73
-1711.12
-2299.88
-3077.69
-4125.52
-5565.17
-7586.32
-10496.4
-14816.5
-21475.8
-32223.6
-50526.7
-83476.5
-145203
-258457
-423855
-176.155
-540.328
-941.138
-1406.64
-1970.89
-2677.49
-3584.7
-4772.98
-6356.76
-8503.06
-11462.2
-15619.3
-21581.9
-30329.4
-43458.7
-63539.5
-94415.4
-140535
-202030
-257828
-229.843
-704.48
-1225.19
-1826.93
-2551.53
-3451.69
-4596.28
-6078.09
-8024.9
-10616.1
-14107.4
-18867.2
-25428.7
-34556.3
-47307.8
-65012.7
-88933.6
-119053
-151075
-171749
-270.989
-829.819
-1440.46
-2141.74
-2979.39
-4009.76
-5304.65
-6957.7
-9093.1
-11877.1
-15533.1
-20359.2
-26745.6
-35178.4
-46201.4
-60266.9
-77350.9
-96170.4
-113019
-121141
-298.97
-914.522
-1584.06
-2347.51
-3250.98
-4349.92
-5712.82
-7425.86
-9598.35
-12368.9
-15911.5
-20438.4
-26195.1
-33434.7
-42349.6
-52927.9
-64694
-76340.8
-85419.7
-88620.4
-314.148
-959.826
-1658.62
-2449.24
-3375.45
-4488.43
-5849.35
-7532.01
-9625.53
-12236.1
-15486.8
-19512
-24442.6
-30373.4
-37301.6
-45027
-53013.4
-60254.1
-65261.6
-66397.1
-317.68
-969.427
-1671.09
-2458.45
-3371.11
-4454.01
-5758.88
-7345.42
-9281.74
-11643.4
-14509.7
-17954.9
-22031.9
-26743.5
-31999.1
-37555.7
-42956.8
-47502.1
-50310.6
-50548.5
-311.283
-948.715
-1631.28
-2390.81
-3261.74
-4281.91
-5493.19
-6941.52
-8676.1
-10746.9
-13199.9
-16067.8
-19356.6
-23024
-26952.9
-30921
-34580
-37463.2
-39049.9
-38901.8
-296.974
-903.973
-1550.46
-2263.85
-3073.07
-4008.9
-5103.95
-6392.09
-7906.95
-9679
-11730.8
-14069.4
-16676
-19491.9
-22403.7
-25230.1
-27718.9
-29564.8
-30456.9
-30157.8
-276.846
-841.671
-1440.08
-2095
-2830.05
-3669.52
-4637.99
-5759.42
-7055.48
-8542.81
-10228.9
-12106.5
-14146.3
-16288.7
-18436
-20449
-22150
-23340.1
-23831.3
-23491.3
-252.885
-767.917
-1310.79
-1900.22
-2555.01
-3293.83
-4134.63
-5093.7
-6184.04
-7413.09
-8779.51
-10269.2
-11850.6
-13470.4
-15049.8
-16485.2
-17653.2
-18423.9
-18682.1
-18352.3
-226.852
-688.087
-1171.89
-1693.2
-2266.66
-2906.25
-3624.75
-4432.74
-5337.26
-6340.03
-7435.07
-8606.1
-9823.71
-11043.1
-12203.4
-13228.7
-14033.9
-14533.9
-14657
-14359.3
-200.21
-606.63
-1030.98
-1484.93
-1979.66
-2525.44
-3131.07
-3803.08
-4544.63
-5354.16
-6223.78
-7137.59
-8070.13
-8985.44
-9837.26
-10571
-11128
-11452
-11498
-11240
-174.103
-527.003
-893.881
-1283.7
-1704.82
-2164.63
-2669.02
-3221.74
-3823.55
-4471.27
-5156.67
-5865.51
-6576.75
-7262.26
-7887.55
-8413.52
-8799.72
-9008.89
-9012.21
-8794.33
-149.368
-451.71
-764.765
-1095.29
-1449.45
-1832.43
-2248.04
-2698.2
-3182.31
-3696.57
-4233.31
-4780.41
-5321
-5833.53
-6292.51
-6670.08
-6938.32
-7072.33
-7053.56
-6872.86
-126.561
-382.41
-646.335
-923.358
-1217.93
-1533.62
-1872.81
-2236.24
-2622.62
-3028.16
-3446.12
-3866.57
-4276.25
-4658.86
-4995.75
-5267.08
-5453.55
-5538.43
-5509.69
-5361.85
-106.005
-320.045
-540.082
-769.787
-1012.32
-1270.09
-1544.49
-1835.57
-2141.79
-2459.64
-2783.48
-3105.33
-3414.97
-3700.2
-3947.42
-4142.55
-4272.2
-4325.08
-4293.33
-4173.7
-87.8361
-264.998
-446.547
-635.125
-832.94
-1041.57
-1261.76
-1493.2
-1734.31
-1982.05
-2231.79
-2477.29
-2710.73
-2923.06
-3104.42
-3244.79
-3334.89
-3367.06
-3336.14
-3240.22
-72.0489
-217.224
-365.562
-518.935
-678.858
-846.334
-1021.7
-1204.46
-1393.15
-1585.23
-1777
-1963.61
-2139.17
-2297
-2429.95
-2530.94
-2593.49
-2612.39
-2584.25
-2507.95
-58.5375
-176.38
-296.47
-420.114
-548.329
-681.727
-820.394
-963.782
-1110.61
-1258.8
-1405.43
-1546.81
-1678.51
-1795.63
-1893.02
-1965.64
-2008.99
-2019.51
-1994.97
-1934.74
-47.1307
-141.932
-238.305
-337.149
-439.13
-544.6
-653.506
-765.31
-878.933
-992.707
-1104.37
-1211.12
-1309.67
-1396.42
-1467.68
-1519.87
-1549.85
-1555.19
-1534.42
-1487.19
-37.6199
-113.233
-189.93
-268.316
-348.817
-431.615
-516.588
-603.246
-690.703
-777.644
-862.336
-942.664
-1016.2
-1080.34
-1132.4
-1169.87
-1190.56
-1192.79
-1175.59
-1138.79
-29.7804
-89.5953
-150.145
-211.829
-274.91
-339.466
-405.344
-472.123
-539.086
-605.213
-669.187
-729.427
-784.151
-831.458
-869.439
-896.309
-910.536
-910.978
-896.989
-868.502
-23.3871
-70.3313
-117.765
-165.945
-215.026
-265.024
-315.782
-366.949
-417.956
-468.018
-516.143
-561.16
-601.761
-636.572
-664.228
-683.467
-693.22
-692.703
-681.491
-659.569
-18.225
-54.7867
-91.6675
-129.028
-166.953
-205.425
-244.296
-283.28
-321.933
-359.657
-395.71
-429.227
-459.256
-484.806
-504.902
-518.653
-525.313
-524.346
-515.472
-498.703
-14.0963
-42.3606
-70.828
-99.5953
-128.703
-158.116
-187.707
-217.244
-246.384
-274.678
-301.573
-326.434
-348.57
-367.27
-381.838
-391.647
-396.177
-395.061
-388.114
-375.361
-10.8237
-32.5157
-54.3332
-76.3314
-98.5244
-120.871
-143.263
-165.518
-187.375
-208.495
-228.471
-246.84
-263.102
-276.747
-287.281
-294.263
-297.331
-296.233
-290.849
-281.207
-8.25177
-24.7822
-41.3871
-58.0955
-74.9064
-91.7789
-108.624
-125.3
-141.609
-157.299
-172.071
-185.589
-197.492
-207.417
-215.013
-219.971
-222.038
-221.043
-216.909
-209.66
-6.2472
-18.757
-31.3087
-43.915
-56.5674
-69.2286
-81.8271
-94.2534
-106.359
-117.959
-128.834
-138.74
-147.42
-154.614
-160.076
-163.587
-164.973
-164.117
-160.969
-155.552
-4.69727
-14.1
-23.5242
-32.9733
-42.4356
-51.8788
-61.2463
-70.4548
-79.394
-87.9274
-95.8963
-103.125
-109.43
-114.627
-118.541
-121.02
-121.945
-121.234
-118.856
-114.831
-3.50812
-10.5282
-17.5574
-24.5943
-31.6264
-38.6269
-45.5516
-52.3379
-58.904
-65.1505
-70.9627
-76.2149
-80.7758
-84.5152
-87.3111
-89.0572
-89.6701
-89.0955
-87.3131
-84.3389
-2.60266
-7.80924
-13.018
-18.225
-23.4186
-28.577
-33.6664
-38.6398
-43.4373
-47.9868
-52.2058
-56.0046
-59.2901
-61.9706
-63.9607
-65.1864
-65.5902
-65.1355
-63.8093
-61.6245
-1.9183
-5.75478
-9.58975
-13.4184
-17.2306
-21.009
-24.7278
-28.3525
-31.8392
-35.1359
-38.1836
-40.9186
-43.2752
-45.1889
-46.6002
-47.4578
-47.7221
-47.3684
-46.3887
-44.7929
-1.40483
-4.2137
-7.01938
-9.81708
-12.5983
-15.3495
-18.0513
-20.6784
-23.199
-25.5757
-27.7666
-29.7266
-31.4094
-32.7701
-33.7672
-34.3651
-34.537
-34.266
-33.5472
-32.3882
-1.02238
-3.0661
-5.10608
-7.13803
-9.155
-11.1467
-13.0986
-14.9923
-16.8049
-18.5097
-20.077
-21.4751
-22.6715
-23.6349
-24.3366
-24.7521
-24.863
-24.658
-24.1341
-23.2971
-0.739615
-2.21776
-3.69229
-5.1595
-6.61392
-8.04771
-9.45029
-10.8082
-12.105
-13.3219
-14.4378
-15.4305
-16.2774
-16.9568
-17.4487
-17.7364
-17.8074
-17.654
-17.2746
-16.6734
-0.53215
-1.59546
-2.65554
-3.70937
-4.7527
-5.77964
-6.78247
-7.75147
-8.67499
-9.53964
-10.3307
-11.0327
-11.6298
-12.107
-12.4507
-12.6493
-12.6944
-12.5808
-12.3075
-11.8778
-0.381219
-1.14281
-1.90167
-2.65539
-3.40071
-4.13329
-4.84749
-5.53634
-6.19159
-6.8038
-7.36268
-7.85741
-8.27712
-8.61139
-8.85083
-8.9876
-9.0159
-8.93239
-8.73649
-8.43054
-0.272529
-0.816885
-1.35901
-1.89702
-2.42844
-2.95007
-3.45782
-3.94671
-4.4109
-4.84375
-5.23806
-5.58632
-5.88099
-6.11489
-6.28158
-6.3757
-6.39331
-6.33221
-6.19209
-5.97464
-0.195339
-0.58545
-0.973773
-1.35884
-1.73879
-2.11125
-2.47326
-2.82126
-3.15108
-3.45806
-3.73714
-3.98308
-4.19065
-4.35488
-4.47133
-4.53632
-4.54719
-4.50246
-4.40198
-4.24699
-0.141717
-0.424692
-0.706238
-0.985209
-1.26019
-1.52941
-1.7907
-2.04148
-2.27876
-2.49919
-2.6992
-2.87508
-3.02315
-3.13992
-3.22231
-3.26776
-3.27444
-3.24134
-3.16842
-3.05658
-0.105954
-0.31749
-0.527861
-0.736157
-0.941273
-1.14185
-1.33626
-1.52256
-1.69854
-1.86175
-2.00955
-2.13925
-2.24818
-2.33383
-2.39395
-2.42674
-2.43089
-2.4057
-2.35116
-2.26797
-0.0841343
-0.252084
-0.419046
-0.584258
-0.746811
-0.905608
-1.05934
-1.20646
-1.34524
-1.47375
-1.58994
-1.69171
-1.77701
-1.84389
-1.89065
-1.91588
-1.9186
-1.8983
-1.85499
-1.78922
-0.0738109
-0.221141
-0.367571
-0.51241
-0.654845
-0.793901
-0.928421
-1.05706
-1.17829
-1.29045
-1.39176
-1.48039
-1.55459
-1.61266
-1.65315
-1.67485
-1.67694
-1.65897
-1.62097
-1.56342
)
;

boundaryField
{
    topWall
    {
        type            calculated;
        value           nonuniform List<scalar> 
20
(
-0.0738109
-0.221141
-0.367571
-0.51241
-0.654845
-0.793901
-0.928421
-1.05706
-1.17829
-1.29045
-1.39176
-1.48039
-1.55459
-1.61266
-1.65315
-1.67485
-1.67694
-1.65897
-1.62097
-1.56342
)
;
    }
    bottomWall
    {
        type            calculated;
        value           nonuniform List<scalar> 
20
(
-38.8445
-119.247
-208.049
-311.752
-438.36
-598.326
-805.945
-1081.54
-1455.09
-1972.42
-2706.68
-3780.45
-5412.54
-8026.43
-12533.4
-21174.6
-40365.9
-91353.1
-251951
-803028
)
;
    }
    sideWallL
    {
        type            symmetry;
    }
    sideWallR
    {
        type            calculated;
        value           nonuniform List<scalar> 
45
(
-1.23106e+06
-516395
-279549
-176869
-121987
-88307.5
-65800.2
-49933.6
-38349.8
-29688.1
-23101.9
-18034.2
-14102
-11033.2
-8629.16
-6741.55
-5257.93
-4091.81
-3175.98
-2457.78
-1895.73
-1456.99
-1115.53
-850.663
-645.955
-488.364
-367.55
-275.334
-205.268
-152.284
-112.412
-82.5583
-60.3207
-43.8434
-31.7005
-22.8016
-16.3183
-11.6245
-8.25053
-5.84692
-4.1561
-2.9911
-2.21935
-1.75083
-1.52986
)
;
    }
    frontAndBack
    {
        type            empty;
    }
}


// ************************************************************************* //
