/*--------------------------------*- C++ -*----------------------------------*\
  =========                 |
  \\      /  F ield         | OpenFOAM: The Open Source CFD Toolbox
   \\    /   O peration     | Website:  https://openfoam.org
    \\  /    A nd           | Version:  7
     \\/     M anipulation  |
\*---------------------------------------------------------------------------*/
FoamFile
{
    version     2.0;
    format      ascii;
    class       volScalarField;
    location    "27";
    object      rhoc;
}
// * * * * * * * * * * * * * * * * * * * * * * * * * * * * * * * * * * * * * //

dimensions      [1 -3 0 0 0 0 0];

internalField   nonuniform List<scalar> 
900
(
3.30503e-08
3.29951e-08
3.28809e-08
3.27e-08
3.24398e-08
3.20822e-08
3.16022e-08
3.09654e-08
3.01262e-08
2.90237e-08
2.75781e-08
2.56868e-08
2.32227e-08
2.00413e-08
1.60142e-08
1.11372e-08
5.83399e-09
1.53596e-09
4.95271e-11
2.22583e-16
3.43896e-10
3.42003e-10
3.38111e-10
3.32011e-10
3.2338e-10
3.11787e-10
2.967e-10
2.77511e-10
2.53605e-10
2.24487e-10
1.90031e-10
1.50866e-10
1.08926e-10
6.79771e-11
3.35468e-11
1.10812e-11
1.74509e-12
6.13362e-14
7.28926e-17
1.69599e-23
3.71205e-12
3.67548e-12
3.60086e-12
3.48537e-12
3.32508e-12
3.11548e-12
2.85243e-12
2.53366e-12
2.16123e-12
1.74475e-12
1.30497e-12
8.76023e-13
5.02727e-13
2.28299e-13
7.22321e-14
1.27922e-14
8.56315e-16
1.04494e-17
5.98784e-21
2.15365e-26
4.3651e-14
4.30217e-14
4.17483e-14
3.98046e-14
3.71624e-14
3.38052e-14
2.97509e-14
2.50812e-14
1.9976e-14
1.474e-14
9.79992e-15
5.63862e-15
2.64541e-15
9.25149e-16
2.10078e-16
2.49581e-17
1.1046e-18
1.08227e-20
1.1681e-23
1.10701e-27
5.89416e-16
5.78306e-16
5.56006e-16
5.22446e-16
4.77759e-16
4.2257e-16
3.58379e-16
2.87962e-16
2.15635e-16
1.47106e-16
8.85899e-17
4.50658e-17
1.81972e-17
5.33862e-18
1.00306e-18
1.00985e-19
4.27215e-21
5.63863e-23
1.83487e-25
2.40791e-28
9.61336e-18
9.39412e-18
8.95741e-18
8.30877e-18
7.46141e-18
6.44166e-18
5.29486e-18
4.08942e-18
2.91542e-18
1.87326e-18
1.05054e-18
4.92486e-19
1.82121e-19
4.91687e-20
8.75491e-21
9.04437e-22
4.67818e-23
1.0656e-24
1.09664e-26
9.9968e-29
1.98321e-19
1.93168e-19
1.8297e-19
1.67993e-19
1.48742e-19
1.26068e-19
1.01258e-19
7.60417e-20
5.24533e-20
3.2473e-20
1.75077e-20
7.90787e-21
2.84834e-21
7.69426e-22
1.44859e-22
1.75379e-23
1.27113e-24
5.41287e-26
1.57711e-27
5.78304e-29
5.38317e-21
5.23153e-21
4.93304e-21
4.49845e-21
3.94668e-21
3.30707e-21
2.62071e-21
1.9389e-21
1.31719e-21
8.04575e-22
4.30423e-22
1.95258e-22
7.22634e-23
2.08714e-23
4.48812e-24
6.89111e-25
7.41645e-26
5.85204e-27
4.11468e-28
4.039e-29
1.98345e-22
1.92547e-22
1.81174e-22
1.6471e-22
1.43972e-22
1.20166e-22
9.49003e-23
7.00915e-23
4.77111e-23
2.93994e-23
1.60501e-23
7.57102e-24
3.00085e-24
9.70986e-25
2.50033e-25
5.05563e-26
8.15245e-27
1.13098e-27
1.61899e-28
3.16444e-29
1.01406e-23
9.84494e-24
9.26596e-24
8.43022e-24
7.3811e-24
6.18106e-24
4.91116e-24
3.66541e-24
2.53849e-24
1.60795e-24
9.16334e-25
4.61421e-25
2.01599e-25
7.52145e-26
2.3747e-26
6.38234e-27
1.511e-27
3.41648e-28
8.46037e-29
2.66902e-29
7.28682e-25
7.08269e-25
6.68306e-25
6.10619e-25
5.38155e-25
4.55099e-25
3.66824e-25
2.79517e-25
1.99423e-25
1.31774e-25
7.9705e-26
4.36183e-26
2.13792e-26
9.32987e-27
3.63392e-27
1.28492e-27
4.29053e-28
1.44704e-28
5.37384e-29
2.36461e-29
7.39523e-26
7.20355e-26
6.8278e-26
6.28405e-26
5.59815e-26
4.80674e-26
3.95689e-26
3.10332e-26
2.30242e-26
1.60375e-26
1.04097e-26
6.25606e-27
3.46794e-27
1.77496e-27
8.46295e-28
3.83624e-28
1.71082e-28
7.86031e-29
3.90286e-29
2.1668e-29
1.05869e-26
1.03429e-26
9.86359e-27
9.16686e-27
8.28187e-27
7.25024e-27
6.12608e-27
4.97361e-27
3.8613e-27
2.85313e-27
1.99841e-27
1.3236e-27
8.29254e-28
4.93752e-28
2.82387e-28
1.57906e-28
8.84579e-29
5.10335e-29
3.10894e-29
2.03307e-29
2.12438e-27
2.08276e-27
2.00073e-27
1.8808e-27
1.72712e-27
1.54572e-27
1.34459e-27
1.13352e-27
9.23383e-28
7.2503e-28
5.47837e-28
3.98336e-28
2.7935e-28
1.89979e-28
1.26438e-28
8.3403e-29
5.53657e-29
3.75695e-29
2.64085e-29
1.94007e-29
5.89362e-28
5.80016e-28
5.61523e-28
5.34315e-28
4.99111e-28
4.56991e-28
4.09432e-28
3.58309e-28
3.0581e-28
2.54264e-28
2.05889e-28
1.62521e-28
1.25381e-28
9.49622e-29
7.10703e-29
5.29895e-29
3.97195e-29
3.01996e-29
2.34682e-29
1.87408e-29
2.20149e-28
2.17455e-28
2.12105e-28
2.04182e-28
1.93834e-28
1.81289e-28
1.66876e-28
1.51031e-28
1.34291e-28
1.17265e-28
1.00584e-28
8.48355e-29
7.05048e-29
5.79201e-29
4.72331e-29
3.84296e-29
3.13659e-29
2.5819e-29
2.15348e-29
1.82655e-29
1.06168e-28
1.05203e-28
1.03281e-28
1.00419e-28
9.66489e-29
9.20251e-29
8.66316e-29
8.05869e-29
7.40455e-29
6.71942e-29
6.02412e-29
5.34003e-29
4.68715e-29
4.08221e-29
3.53727e-29
3.05909e-29
2.64935e-29
2.30549e-29
2.02207e-29
1.79198e-29
6.27529e-29
6.23399e-29
6.15146e-29
6.02797e-29
5.86416e-29
5.66137e-29
5.42192e-29
5.14939e-29
4.84881e-29
4.52669e-29
4.19079e-29
3.84972e-29
3.51231e-29
3.18693e-29
2.88076e-29
2.59935e-29
2.34632e-29
2.12339e-29
1.93058e-29
1.76664e-29
4.31843e-29
4.29805e-29
4.25724e-29
4.19596e-29
4.11424e-29
4.01236e-29
3.89094e-29
3.75113e-29
3.59472e-29
3.42421e-29
3.24279e-29
3.05425e-29
2.86277e-29
2.67263e-29
2.48795e-29
2.31238e-29
2.14888e-29
1.99958e-29
1.86578e-29
1.74798e-29
3.31437e-29
3.30316e-29
3.2807e-29
3.24687e-29
3.2016e-29
3.14486e-29
3.07679e-29
2.99776e-29
2.90844e-29
2.80987e-29
2.70345e-29
2.591e-29
2.47461e-29
2.35657e-29
2.23928e-29
2.125e-29
2.01583e-29
1.91348e-29
1.8193e-29
1.7342e-29
2.74671e-29
2.74004e-29
2.72664e-29
2.70643e-29
2.67932e-29
2.64522e-29
2.60413e-29
2.55614e-29
2.50152e-29
2.44073e-29
2.37443e-29
2.30354e-29
2.22917e-29
2.15261e-29
2.07528e-29
1.9986e-29
1.92396e-29
1.85263e-29
1.7857e-29
1.72402e-29
2.40205e-29
2.39783e-29
2.38935e-29
2.37656e-29
2.35937e-29
2.3377e-29
2.31152e-29
2.28083e-29
2.24573e-29
2.20643e-29
2.16328e-29
2.11676e-29
2.06751e-29
2.01627e-29
1.96389e-29
1.9113e-29
1.85942e-29
1.80913e-29
1.76125e-29
1.71648e-29
2.1816e-29
2.17881e-29
2.17322e-29
2.16478e-29
2.15342e-29
2.13909e-29
2.12174e-29
2.10136e-29
2.07798e-29
2.05171e-29
2.02274e-29
1.99133e-29
1.95786e-29
1.92278e-29
1.88663e-29
1.85001e-29
1.81353e-29
1.7778e-29
1.74342e-29
1.71092e-29
2.0352e-29
2.03331e-29
2.02951e-29
2.02376e-29
2.01604e-29
2.00628e-29
1.99447e-29
1.98057e-29
1.9646e-29
1.94661e-29
1.92672e-29
1.90507e-29
1.88191e-29
1.85752e-29
1.83225e-29
1.80648e-29
1.78062e-29
1.75512e-29
1.73038e-29
1.70681e-29
1.93533e-29
1.93401e-29
1.93137e-29
1.92739e-29
1.92202e-29
1.91525e-29
1.90704e-29
1.89738e-29
1.88628e-29
1.87376e-29
1.85989e-29
1.84477e-29
1.82855e-29
1.81141e-29
1.79358e-29
1.77532e-29
1.75691e-29
1.73866e-29
1.72086e-29
1.70378e-29
1.86589e-29
1.86496e-29
1.8631e-29
1.8603e-29
1.85652e-29
1.85175e-29
1.84598e-29
1.83918e-29
1.83137e-29
1.82256e-29
1.81279e-29
1.80213e-29
1.79067e-29
1.77854e-29
1.7659e-29
1.75291e-29
1.73978e-29
1.7267e-29
1.71389e-29
1.70156e-29
1.81698e-29
1.81632e-29
1.815e-29
1.813e-29
1.81032e-29
1.80693e-29
1.80284e-29
1.79802e-29
1.79248e-29
1.78623e-29
1.77931e-29
1.77175e-29
1.76362e-29
1.75501e-29
1.74601e-29
1.73676e-29
1.72738e-29
1.71802e-29
1.70882e-29
1.69993e-29
1.78223e-29
1.78176e-29
1.78081e-29
1.77939e-29
1.77747e-29
1.77506e-29
1.77213e-29
1.7687e-29
1.76476e-29
1.76031e-29
1.75539e-29
1.75001e-29
1.74423e-29
1.7381e-29
1.7317e-29
1.7251e-29
1.71841e-29
1.71171e-29
1.70513e-29
1.69875e-29
1.75741e-29
1.75708e-29
1.7564e-29
1.75538e-29
1.75401e-29
1.75228e-29
1.75019e-29
1.74774e-29
1.74493e-29
1.74176e-29
1.73825e-29
1.73443e-29
1.73031e-29
1.72595e-29
1.72139e-29
1.7167e-29
1.71193e-29
1.70715e-29
1.70245e-29
1.69788e-29
1.73965e-29
1.7394e-29
1.73892e-29
1.73819e-29
1.7372e-29
1.73597e-29
1.73448e-29
1.73273e-29
1.73072e-29
1.72846e-29
1.72597e-29
1.72324e-29
1.72032e-29
1.71722e-29
1.71398e-29
1.71065e-29
1.70725e-29
1.70386e-29
1.70051e-29
1.69726e-29
1.72692e-29
1.72674e-29
1.72639e-29
1.72587e-29
1.72517e-29
1.72429e-29
1.72322e-29
1.72197e-29
1.72054e-29
1.71894e-29
1.71716e-29
1.71523e-29
1.71316e-29
1.71096e-29
1.70866e-29
1.7063e-29
1.7039e-29
1.70149e-29
1.69912e-29
1.69681e-29
1.7178e-29
1.71768e-29
1.71743e-29
1.71706e-29
1.71655e-29
1.71593e-29
1.71517e-29
1.71428e-29
1.71327e-29
1.71213e-29
1.71087e-29
1.7095e-29
1.70803e-29
1.70648e-29
1.70486e-29
1.70319e-29
1.70149e-29
1.69979e-29
1.69811e-29
1.69648e-29
1.71129e-29
1.7112e-29
1.71103e-29
1.71076e-29
1.7104e-29
1.70996e-29
1.70942e-29
1.70879e-29
1.70807e-29
1.70727e-29
1.70638e-29
1.70541e-29
1.70438e-29
1.70328e-29
1.70214e-29
1.70097e-29
1.69977e-29
1.69858e-29
1.6974e-29
1.69625e-29
1.70665e-29
1.70659e-29
1.70647e-29
1.70628e-29
1.70602e-29
1.70571e-29
1.70533e-29
1.70488e-29
1.70438e-29
1.70381e-29
1.70318e-29
1.70251e-29
1.70178e-29
1.70101e-29
1.70021e-29
1.69939e-29
1.69855e-29
1.69772e-29
1.69689e-29
1.69609e-29
1.70336e-29
1.70332e-29
1.70323e-29
1.7031e-29
1.70292e-29
1.7027e-29
1.70243e-29
1.70212e-29
1.70176e-29
1.70136e-29
1.70092e-29
1.70045e-29
1.69994e-29
1.6994e-29
1.69885e-29
1.69827e-29
1.69769e-29
1.69711e-29
1.69653e-29
1.69597e-29
1.70103e-29
1.701e-29
1.70094e-29
1.70085e-29
1.70072e-29
1.70057e-29
1.70038e-29
1.70016e-29
1.69991e-29
1.69963e-29
1.69933e-29
1.699e-29
1.69864e-29
1.69827e-29
1.69788e-29
1.69748e-29
1.69708e-29
1.69668e-29
1.69628e-29
1.69589e-29
1.6994e-29
1.69938e-29
1.69933e-29
1.69927e-29
1.69918e-29
1.69907e-29
1.69894e-29
1.69879e-29
1.69861e-29
1.69842e-29
1.69821e-29
1.69798e-29
1.69774e-29
1.69748e-29
1.69721e-29
1.69693e-29
1.69665e-29
1.69637e-29
1.6961e-29
1.69583e-29
1.69825e-29
1.69824e-29
1.69821e-29
1.69816e-29
1.6981e-29
1.69802e-29
1.69793e-29
1.69783e-29
1.69771e-29
1.69757e-29
1.69743e-29
1.69727e-29
1.6971e-29
1.69692e-29
1.69674e-29
1.69655e-29
1.69636e-29
1.69616e-29
1.69597e-29
1.69579e-29
1.69745e-29
1.69744e-29
1.69742e-29
1.69739e-29
1.69735e-29
1.6973e-29
1.69723e-29
1.69716e-29
1.69708e-29
1.69699e-29
1.69689e-29
1.69678e-29
1.69666e-29
1.69654e-29
1.69641e-29
1.69628e-29
1.69615e-29
1.69602e-29
1.69589e-29
1.69576e-29
1.6969e-29
1.6969e-29
1.69688e-29
1.69686e-29
1.69683e-29
1.6968e-29
1.69675e-29
1.6967e-29
1.69665e-29
1.69658e-29
1.69651e-29
1.69644e-29
1.69636e-29
1.69627e-29
1.69619e-29
1.6961e-29
1.69601e-29
1.69592e-29
1.69583e-29
1.69574e-29
1.69653e-29
1.69652e-29
1.69651e-29
1.6965e-29
1.69648e-29
1.69645e-29
1.69642e-29
1.69639e-29
1.69635e-29
1.69631e-29
1.69626e-29
1.69621e-29
1.69615e-29
1.69609e-29
1.69603e-29
1.69597e-29
1.69591e-29
1.69585e-29
1.69579e-29
1.69573e-29
1.69628e-29
1.69627e-29
1.69627e-29
1.69625e-29
1.69624e-29
1.69622e-29
1.6962e-29
1.69618e-29
1.69615e-29
1.69612e-29
1.69609e-29
1.69605e-29
1.69601e-29
1.69597e-29
1.69593e-29
1.69589e-29
1.69585e-29
1.6958e-29
1.69576e-29
1.69572e-29
1.69611e-29
1.69611e-29
1.69611e-29
1.6961e-29
1.69609e-29
1.69608e-29
1.69606e-29
1.69604e-29
1.69602e-29
1.696e-29
1.69598e-29
1.69595e-29
1.69592e-29
1.6959e-29
1.69587e-29
1.69584e-29
1.69581e-29
1.69577e-29
1.69574e-29
1.69572e-29
1.69602e-29
1.69601e-29
1.69601e-29
1.696e-29
1.696e-29
1.69599e-29
1.69598e-29
1.69596e-29
1.69595e-29
1.69593e-29
1.69591e-29
1.69589e-29
1.69587e-29
1.69585e-29
1.69583e-29
1.6958e-29
1.69578e-29
1.69576e-29
1.69573e-29
1.69571e-29
1.69597e-29
1.69597e-29
1.69597e-29
1.69596e-29
1.69595e-29
1.69595e-29
1.69594e-29
1.69592e-29
1.69591e-29
1.6959e-29
1.69588e-29
1.69586e-29
1.69585e-29
1.69583e-29
1.69581e-29
1.69579e-29
1.69577e-29
1.69575e-29
1.69573e-29
1.69571e-29
)
;

boundaryField
{
    topWall
    {
        type            zeroGradient;
    }
    bottomWall
    {
        type            zeroGradient;
    }
    sideWallL
    {
        type            symmetry;
    }
    sideWallR
    {
        type            zeroGradient;
    }
    frontAndBack
    {
        type            empty;
    }
}


// ************************************************************************* //
