/*--------------------------------*- C++ -*----------------------------------*\
  =========                 |
  \\      /  F ield         | OpenFOAM: The Open Source CFD Toolbox
   \\    /   O peration     | Website:  https://openfoam.org
    \\  /    A nd           | Version:  7
     \\/     M anipulation  |
\*---------------------------------------------------------------------------*/
FoamFile
{
    version     2.0;
    format      ascii;
    class       volScalarField;
    location    "27";
    object      rhog;
}
// * * * * * * * * * * * * * * * * * * * * * * * * * * * * * * * * * * * * * //

dimensions      [1 -3 0 0 0 0 0];

internalField   nonuniform List<scalar> 
900
(
0.00354157
0.00353809
0.00353091
0.0035195
0.00350306
0.00348038
0.00344979
0.00340895
0.00335461
0.00328233
0.00318587
0.00305653
0.00288206
0.0026451
0.0023215
0.00187981
0.00129158
0.000595694
8.11812e-05
6.02451e-08
0.000253405
0.000252588
0.000250904
0.000248248
0.000244456
0.000239299
0.00023247
0.000223578
0.000212137
0.000197584
0.00017931
0.000156766
0.000129696
9.85781e-05
6.53591e-05
3.42955e-05
1.16757e-05
1.64948e-06
3.14657e-08
3.52699e-12
1.84296e-05
1.83227e-05
1.81034e-05
1.77602e-05
1.72763e-05
1.6629e-05
1.57908e-05
1.47315e-05
1.34217e-05
1.18407e-05
9.98972e-06
7.9117e-06
5.7166e-06
3.6014e-06
1.83547e-06
6.65044e-07
1.35708e-07
1.00811e-08
1.19623e-10
6.25193e-14
1.39122e-06
1.37935e-06
1.35511e-06
1.31753e-06
1.26523e-06
1.19655e-06
1.10978e-06
1.00361e-06
8.7775e-07
7.33957e-07
5.77229e-07
4.16951e-07
2.67066e-07
1.43845e-07
6.00239e-08
1.70593e-08
2.69267e-09
1.72016e-10
2.87446e-12
1.00992e-14
1.12432e-07
1.1117e-07
1.08608e-07
1.04673e-07
9.92708e-08
9.23084e-08
8.37275e-08
7.35578e-08
6.19859e-08
4.94341e-08
3.66208e-08
2.45498e-08
1.43525e-08
6.94146e-09
2.57513e-09
6.58109e-10
9.99162e-11
7.48719e-12
2.35708e-13
3.90317e-15
1.00346e-08
9.89758e-09
9.62084e-09
9.1996e-09
8.62887e-09
7.90616e-09
7.03566e-09
6.03352e-09
4.93376e-09
3.79278e-09
2.68909e-09
1.71368e-09
9.4811e-10
4.34692e-10
1.55317e-10
3.99934e-11
6.77145e-12
6.92606e-13
4.25857e-14
2.24237e-15
1.01804e-09
1.00212e-09
9.70113e-10
9.21789e-10
8.57066e-10
7.76362e-10
6.81036e-10
5.73909e-10
4.59709e-10
3.45199e-10
2.38655e-10
1.48413e-10
8.0586e-11
3.68095e-11
1.35234e-11
3.80067e-12
7.79803e-13
1.14543e-13
1.29458e-14
1.58328e-15
1.20382e-10
1.18332e-10
1.14225e-10
1.08066e-10
9.98937e-11
8.98276e-11
7.8116e-11
6.51883e-11
5.16862e-11
3.8447e-11
2.64089e-11
1.64266e-11
9.03725e-12
4.27931e-12
1.69349e-12
5.45011e-13
1.40475e-13
2.954e-14
5.61015e-15
1.25851e-15
1.69273e-11
1.66266e-11
1.60261e-11
1.513e-11
1.39493e-11
1.25074e-11
1.08468e-11
9.03428e-12
7.16323e-12
5.34844e-12
3.71165e-12
2.35763e-12
1.34729e-12
6.80218e-13
2.98389e-13
1.12539e-13
3.66717e-14
1.07233e-14
3.11278e-15
1.07598e-15
2.87092e-12
2.81977e-12
2.71785e-12
2.56623e-12
2.36731e-12
2.1256e-12
1.8487e-12
1.54798e-12
1.23863e-12
9.38793e-13
6.6717e-13
4.39624e-13
2.65511e-13
1.45431e-13
7.17387e-14
3.18991e-14
1.29979e-14
5.06941e-15
2.05448e-15
9.64252e-16
5.92245e-13
5.82045e-13
5.61739e-13
5.31579e-13
4.92078e-13
4.44163e-13
3.89327e-13
3.29738e-13
2.68244e-13
2.08189e-13
1.53024e-13
1.05724e-13
6.81948e-14
4.08753e-14
2.27623e-14
1.18695e-14
5.91835e-15
2.93448e-15
1.53153e-15
8.91784e-16
1.49062e-13
1.46666e-13
1.41899e-13
1.34819e-13
1.25544e-13
1.1428e-13
1.01356e-13
8.72431e-14
7.25565e-14
5.80211e-14
4.43954e-14
3.23607e-14
2.2402e-14
1.4721e-14
9.2193e-15
5.56201e-15
3.29723e-15
1.978e-15
1.24315e-15
8.42834e-16
4.57206e-14
4.50598e-14
4.3744e-14
4.17877e-14
3.922e-14
3.60919e-14
3.24841e-14
2.8513e-14
2.43316e-14
2.01226e-14
1.60824e-14
1.23962e-14
9.21058e-15
6.61033e-15
4.60846e-15
3.15348e-15
2.151e-15
1.49104e-15
1.07101e-15
8.08799e-16
1.70139e-14
1.68013e-14
1.63776e-14
1.57464e-14
1.49154e-14
1.38984e-14
1.27174e-14
1.14049e-14
1.00041e-14
8.5678e-15
7.15464e-15
5.82293e-15
4.62328e-15
3.59163e-15
2.74494e-15
2.08077e-15
1.58104e-15
1.21825e-15
9.62117e-16
7.84634e-16
7.62017e-15
7.54131e-15
7.38391e-15
7.14893e-15
6.83845e-15
6.45644e-15
6.00952e-15
5.50766e-15
4.96455e-15
4.39738e-15
3.82596e-15
3.27102e-15
2.752e-15
2.28478e-15
1.87988e-15
1.54158e-15
1.26834e-15
1.05412e-15
8.90237e-16
7.67215e-16
4.0533e-15
4.02006e-15
3.95361e-15
3.85416e-15
3.72227e-15
3.55911e-15
3.36679e-15
3.14865e-15
2.90946e-15
2.6554e-15
2.39388e-15
2.13305e-15
1.88109e-15
1.64537e-15
1.43172e-15
1.24391e-15
1.08347e-15
9.49934e-16
8.4127e-16
7.54521e-16
2.50941e-15
2.49373e-15
2.46236e-15
2.4153e-15
2.35266e-15
2.27478e-15
2.18235e-15
2.07655e-15
1.95916e-15
1.83261e-15
1.69992e-15
1.56457e-15
1.43026e-15
1.3006e-15
1.17877e-15
1.0673e-15
9.67825e-16
8.81113e-16
8.07125e-16
7.452e-16
1.76199e-15
1.75386e-15
1.73758e-15
1.71309e-15
1.6804e-15
1.63958e-15
1.59083e-15
1.5346e-15
1.47159e-15
1.40282e-15
1.3296e-15
1.25353e-15
1.17639e-15
1.10005e-15
1.02627e-15
9.56613e-16
8.92331e-16
8.34276e-16
7.82907e-16
7.3832e-16
1.36489e-15
1.36033e-15
1.35118e-15
1.3374e-15
1.31896e-15
1.29584e-15
1.26811e-15
1.23592e-15
1.19955e-15
1.15946e-15
1.11626e-15
1.07072e-15
1.02376e-15
9.76368e-16
9.29563e-16
8.84307e-16
8.41453e-16
8.01689e-16
7.65513e-16
7.33224e-16
1.13738e-15
1.13465e-15
1.12917e-15
1.12092e-15
1.10984e-15
1.09591e-15
1.07914e-15
1.05958e-15
1.03735e-15
1.01265e-15
9.8579e-16
9.5716e-16
9.27251e-16
8.9662e-16
8.65863e-16
8.35581e-16
8.06341e-16
7.78647e-16
7.52911e-16
7.29443e-16
9.99003e-16
9.97286e-16
9.93836e-16
9.8863e-16
9.81637e-16
9.7283e-16
9.62196e-16
9.49746e-16
9.35532e-16
9.1965e-16
9.02257e-16
8.83567e-16
8.63854e-16
8.4344e-16
8.22688e-16
8.01977e-16
7.81683e-16
7.62161e-16
7.43726e-16
7.26636e-16
9.10821e-16
9.09697e-16
9.07438e-16
9.04026e-16
8.99439e-16
8.93654e-16
8.86657e-16
8.78445e-16
8.6904e-16
8.5849e-16
8.46878e-16
8.34326e-16
8.20994e-16
8.07077e-16
7.92799e-16
7.78405e-16
7.64147e-16
7.5027e-16
7.37005e-16
7.24553e-16
8.52582e-16
8.51824e-16
8.50299e-16
8.47996e-16
8.44898e-16
8.40989e-16
8.36255e-16
8.30692e-16
8.24306e-16
8.17124e-16
8.09194e-16
8.00585e-16
7.91396e-16
7.81749e-16
7.71786e-16
7.61668e-16
7.51565e-16
7.41646e-16
7.32077e-16
7.23009e-16
8.13069e-16
8.12545e-16
8.11493e-16
8.09904e-16
8.07766e-16
8.05068e-16
8.01799e-16
7.97954e-16
7.93537e-16
7.8856e-16
7.83052e-16
7.77058e-16
7.70638e-16
7.63871e-16
7.56851e-16
7.49683e-16
7.42484e-16
7.35371e-16
7.28462e-16
7.21866e-16
7.85719e-16
7.85352e-16
7.84615e-16
7.83501e-16
7.82003e-16
7.80112e-16
7.77821e-16
7.75126e-16
7.72028e-16
7.68536e-16
7.64666e-16
7.60448e-16
7.55921e-16
7.51136e-16
7.46156e-16
7.41053e-16
7.35906e-16
7.30798e-16
7.2581e-16
7.21023e-16
7.66515e-16
7.66255e-16
7.65732e-16
7.64943e-16
7.63881e-16
7.62542e-16
7.60921e-16
7.59014e-16
7.56822e-16
7.5435e-16
7.5161e-16
7.4862e-16
7.45408e-16
7.42008e-16
7.38461e-16
7.34819e-16
7.31134e-16
7.27464e-16
7.23868e-16
7.20403e-16
7.52895e-16
7.52709e-16
7.52336e-16
7.51772e-16
7.51015e-16
7.50061e-16
7.48905e-16
7.47547e-16
7.45987e-16
7.44228e-16
7.42279e-16
7.40151e-16
7.37864e-16
7.35441e-16
7.32911e-16
7.30308e-16
7.27669e-16
7.25036e-16
7.22448e-16
7.19947e-16
7.43171e-16
7.43038e-16
7.4277e-16
7.42366e-16
7.41824e-16
7.41141e-16
7.40315e-16
7.39345e-16
7.38231e-16
7.36976e-16
7.35585e-16
7.34068e-16
7.32437e-16
7.30709e-16
7.28903e-16
7.27043e-16
7.25156e-16
7.2327e-16
7.21413e-16
7.19614e-16
7.36202e-16
7.36106e-16
7.35914e-16
7.35624e-16
7.35235e-16
7.34746e-16
7.34154e-16
7.3346e-16
7.32664e-16
7.31768e-16
7.30775e-16
7.29693e-16
7.2853e-16
7.27298e-16
7.2601e-16
7.24684e-16
7.23337e-16
7.21989e-16
7.20661e-16
7.19372e-16
7.31199e-16
7.3113e-16
7.30992e-16
7.30784e-16
7.30505e-16
7.30154e-16
7.29731e-16
7.29234e-16
7.28666e-16
7.28026e-16
7.27318e-16
7.26547e-16
7.25719e-16
7.24842e-16
7.23926e-16
7.22982e-16
7.22023e-16
7.21063e-16
7.20116e-16
7.19196e-16
7.27606e-16
7.27557e-16
7.27458e-16
7.27309e-16
7.27109e-16
7.26858e-16
7.26556e-16
7.26201e-16
7.25796e-16
7.2534e-16
7.24836e-16
7.24288e-16
7.237e-16
7.23077e-16
7.22427e-16
7.21757e-16
7.21077e-16
7.20395e-16
7.19723e-16
7.19069e-16
7.2503e-16
7.24995e-16
7.24924e-16
7.24818e-16
7.24675e-16
7.24496e-16
7.2428e-16
7.24028e-16
7.2374e-16
7.23416e-16
7.23058e-16
7.2267e-16
7.22253e-16
7.21812e-16
7.21352e-16
7.20879e-16
7.20398e-16
7.19916e-16
7.1944e-16
7.18978e-16
7.23187e-16
7.23162e-16
7.23111e-16
7.23036e-16
7.22934e-16
7.22807e-16
7.22654e-16
7.22475e-16
7.2227e-16
7.22041e-16
7.21788e-16
7.21514e-16
7.2122e-16
7.20909e-16
7.20584e-16
7.20251e-16
7.19912e-16
7.19573e-16
7.19238e-16
7.18912e-16
7.21872e-16
7.21854e-16
7.21819e-16
7.21765e-16
7.21693e-16
7.21603e-16
7.21494e-16
7.21368e-16
7.21223e-16
7.21062e-16
7.20884e-16
7.20691e-16
7.20484e-16
7.20266e-16
7.20038e-16
7.19804e-16
7.19567e-16
7.19329e-16
7.19094e-16
7.18866e-16
7.20938e-16
7.20925e-16
7.209e-16
7.20862e-16
7.20811e-16
7.20748e-16
7.20671e-16
7.20582e-16
7.20481e-16
7.20367e-16
7.20243e-16
7.20107e-16
7.19963e-16
7.1981e-16
7.19651e-16
7.19487e-16
7.19322e-16
7.19156e-16
7.18992e-16
7.18833e-16
7.20277e-16
7.20268e-16
7.2025e-16
7.20223e-16
7.20188e-16
7.20143e-16
7.2009e-16
7.20027e-16
7.19956e-16
7.19877e-16
7.1979e-16
7.19695e-16
7.19595e-16
7.19488e-16
7.19378e-16
7.19264e-16
7.19149e-16
7.19034e-16
7.1892e-16
7.18809e-16
7.19811e-16
7.19805e-16
7.19792e-16
7.19774e-16
7.19749e-16
7.19718e-16
7.1968e-16
7.19637e-16
7.19587e-16
7.19532e-16
7.19472e-16
7.19406e-16
7.19336e-16
7.19263e-16
7.19186e-16
7.19107e-16
7.19028e-16
7.18948e-16
7.18869e-16
7.18793e-16
7.19485e-16
7.1948e-16
7.19472e-16
7.19459e-16
7.19441e-16
7.1942e-16
7.19394e-16
7.19364e-16
7.19329e-16
7.19291e-16
7.19249e-16
7.19204e-16
7.19156e-16
7.19105e-16
7.19052e-16
7.18998e-16
7.18943e-16
7.18888e-16
7.18834e-16
7.18782e-16
7.19257e-16
7.19254e-16
7.19248e-16
7.19239e-16
7.19227e-16
7.19212e-16
7.19194e-16
7.19174e-16
7.1915e-16
7.19124e-16
7.19095e-16
7.19064e-16
7.1903e-16
7.18996e-16
7.18959e-16
7.18922e-16
7.18884e-16
7.18847e-16
7.1881e-16
7.18774e-16
7.191e-16
7.19098e-16
7.19094e-16
7.19088e-16
7.1908e-16
7.19069e-16
7.19057e-16
7.19043e-16
7.19026e-16
7.19008e-16
7.18988e-16
7.18967e-16
7.18944e-16
7.1892e-16
7.18895e-16
7.1887e-16
7.18844e-16
7.18818e-16
7.18793e-16
7.18768e-16
7.18993e-16
7.18992e-16
7.18989e-16
7.18984e-16
7.18979e-16
7.18972e-16
7.18963e-16
7.18953e-16
7.18942e-16
7.18929e-16
7.18916e-16
7.18901e-16
7.18885e-16
7.18869e-16
7.18852e-16
7.18834e-16
7.18816e-16
7.18799e-16
7.18781e-16
7.18764e-16
7.18921e-16
7.1892e-16
7.18918e-16
7.18915e-16
7.18911e-16
7.18906e-16
7.189e-16
7.18893e-16
7.18885e-16
7.18876e-16
7.18867e-16
7.18857e-16
7.18846e-16
7.18834e-16
7.18822e-16
7.1881e-16
7.18798e-16
7.18786e-16
7.18774e-16
7.18762e-16
7.18874e-16
7.18874e-16
7.18872e-16
7.1887e-16
7.18867e-16
7.18864e-16
7.18859e-16
7.18854e-16
7.18849e-16
7.18842e-16
7.18835e-16
7.18828e-16
7.1882e-16
7.18812e-16
7.18804e-16
7.18795e-16
7.18786e-16
7.18777e-16
7.18769e-16
7.1876e-16
7.18847e-16
7.18846e-16
7.18845e-16
7.18843e-16
7.18841e-16
7.18838e-16
7.18835e-16
7.18831e-16
7.18827e-16
7.18822e-16
7.18817e-16
7.18811e-16
7.18805e-16
7.18799e-16
7.18792e-16
7.18786e-16
7.18779e-16
7.18772e-16
7.18766e-16
7.18759e-16
7.18834e-16
7.18833e-16
7.18832e-16
7.18831e-16
7.18829e-16
7.18826e-16
7.18824e-16
7.1882e-16
7.18817e-16
7.18812e-16
7.18808e-16
7.18803e-16
7.18798e-16
7.18793e-16
7.18787e-16
7.18781e-16
7.18776e-16
7.1877e-16
7.18764e-16
7.18759e-16
)
;

boundaryField
{
    topWall
    {
        type            calculated;
        value           uniform 0;
    }
    bottomWall
    {
        type            zeroGradient;
    }
    sideWallL
    {
        type            symmetry;
    }
    sideWallR
    {
        type            calculated;
        value           uniform 0;
    }
    frontAndBack
    {
        type            empty;
    }
}


// ************************************************************************* //
