/*--------------------------------*- C++ -*----------------------------------*\
  =========                 |
  \\      /  F ield         | OpenFOAM: The Open Source CFD Toolbox
   \\    /   O peration     | Website:  https://openfoam.org
    \\  /    A nd           | Version:  7
     \\/     M anipulation  |
\*---------------------------------------------------------------------------*/
FoamFile
{
    version     2.0;
    format      ascii;
    class       volScalarField;
    location    "27";
    object      rhois;
}
// * * * * * * * * * * * * * * * * * * * * * * * * * * * * * * * * * * * * * //

dimensions      [1 -3 0 0 0 0 0];

internalField   nonuniform List<scalar> 
900
(
0.0202527
0.0202386
0.0202095
0.0201633
0.0200965
0.0200042
0.0198791
0.0197114
0.0194869
0.0191862
0.0187812
0.0182317
0.0174784
0.0164325
0.0149576
0.0128433
0.00978862
0.00558407
0.00131274
7.07485e-06
0.00293482
0.00292808
0.00291414
0.0028921
0.00286049
0.00281721
0.00275942
0.00268331
0.00258399
0.00245523
0.00228946
0.00207798
0.00181206
0.00148592
0.00110346
0.000691469
0.000316555
7.6611e-05
4.36632e-06
6.41615e-09
0.000429165
0.00042739
0.000423734
0.000417986
0.000409817
0.000398775
0.000384276
0.00036561
0.000341962
0.000312493
0.000276495
0.000233707
0.000184848
0.00013239
8.13285e-05
3.90311e-05
1.23707e-05
1.89339e-06
7.81253e-08
3.74145e-10
6.46839e-05
6.42902e-05
6.3483e-05
6.22224e-05
6.04491e-05
5.80858e-05
5.50404e-05
5.12152e-05
4.65225e-05
4.09137e-05
3.44247e-05
2.72401e-05
1.97631e-05
1.26522e-05
6.73752e-06
2.72055e-06
7.19978e-07
9.98844e-08
5.4041e-09
1.06174e-10
1.02856e-05
1.02034e-05
1.00355e-05
9.77516e-06
9.41289e-06
8.93704e-06
8.33551e-06
7.59839e-06
6.7222e-06
5.71602e-06
4.60924e-06
3.45893e-06
2.35221e-06
1.39566e-06
6.84486e-07
2.57059e-07
6.66186e-08
1.05018e-08
9.17718e-10
5.54395e-11
1.76563e-06
1.74849e-06
1.71363e-06
1.65998e-06
1.58608e-06
1.49035e-06
1.37151e-06
1.22915e-06
1.06467e-06
8.82262e-07
6.89903e-07
4.99766e-07
3.27154e-07
1.8722e-07
8.96786e-08
3.40421e-08
9.62338e-09
1.92377e-09
2.77441e-10
3.79827e-11
3.34242e-07
3.30536e-07
3.23028e-07
3.11547e-07
2.9588e-07
2.75834e-07
2.51335e-07
2.22551e-07
1.90058e-07
1.54996e-07
1.19164e-07
8.49493e-08
5.49816e-08
3.14738e-08
1.54468e-08
6.28373e-09
2.05854e-09
5.40972e-10
1.22278e-10
2.99276e-11
7.10843e-08
7.02291e-08
6.85024e-08
6.58764e-08
6.23207e-08
5.78171e-08
5.23813e-08
4.60892e-08
3.91068e-08
3.1713e-08
2.43045e-08
1.73632e-08
1.13747e-08
6.7063e-09
3.48941e-09
1.57567e-09
6.13978e-10
2.11097e-10
6.93567e-11
2.55476e-11
1.72407e-08
1.70256e-08
1.65924e-08
1.59365e-08
1.50537e-08
1.39439e-08
1.26163e-08
1.1095e-08
9.42467e-09
7.67432e-09
5.93594e-09
4.31543e-09
2.91452e-09
1.80698e-09
1.01811e-09
5.18998e-10
2.41354e-10
1.05732e-10
4.66955e-11
2.29137e-11
4.82182e-09
4.76199e-09
4.64172e-09
4.46016e-09
4.21677e-09
3.91231e-09
3.55007e-09
3.13722e-09
2.68608e-09
2.21472e-09
1.74643e-09
1.30728e-09
9.22037e-10
6.08932e-10
3.75392e-10
2.16745e-10
1.18919e-10
6.39404e-11
3.53562e-11
2.1222e-11
1.56632e-09
1.54775e-09
1.51047e-09
1.4543e-09
1.37916e-09
1.2854e-09
1.1741e-09
1.04743e-09
9.08977e-10
7.6389e-10
6.18684e-10
4.80638e-10
3.56747e-10
2.5245e-10
1.7055e-10
1.1077e-10
7.02057e-11
4.44744e-11
2.90279e-11
2.00856e-11
5.93153e-10
5.86702e-10
5.7376e-10
5.54272e-10
5.28227e-10
4.95743e-10
4.57167e-10
4.13188e-10
3.64929e-10
3.13989e-10
2.62397e-10
2.1244e-10
1.66385e-10
1.26122e-10
9.2844e-11
6.68725e-11
4.77046e-11
3.42579e-11
2.521e-11
1.92978e-11
2.61894e-10
2.5939e-10
2.54367e-10
2.46802e-10
2.36689e-10
2.24061e-10
2.09032e-10
1.91832e-10
1.72836e-10
1.52589e-10
1.31785e-10
1.11229e-10
9.17455e-11
7.40744e-11
5.8761e-11
4.60841e-11
3.60417e-11
2.8398e-11
2.2773e-11
1.87392e-11
1.34245e-10
1.33165e-10
1.30998e-10
1.27732e-10
1.2336e-10
1.17891e-10
1.11359e-10
1.03846e-10
9.54848e-11
8.64756e-11
7.70796e-11
6.76067e-11
5.83892e-11
4.97445e-11
4.19361e-11
3.51419e-11
2.94386e-11
2.48066e-11
2.11519e-11
1.83367e-11
7.9088e-11
7.85748e-11
7.75443e-11
7.59901e-11
7.39063e-11
7.12926e-11
6.81596e-11
6.45352e-11
6.04706e-11
5.60436e-11
5.13604e-11
4.65508e-11
4.17599e-11
3.71347e-11
3.28087e-11
2.88878e-11
2.54401e-11
2.24938e-11
2.00403e-11
1.80432e-11
5.2687e-11
5.24212e-11
5.18871e-11
5.10808e-11
4.99979e-11
4.8636e-11
4.69974e-11
4.50917e-11
4.29387e-11
4.05709e-11
3.80341e-11
3.53867e-11
3.26965e-11
3.00361e-11
2.7476e-11
2.50786e-11
2.28923e-11
2.09484e-11
1.92607e-11
1.78274e-11
3.88798e-11
3.87314e-11
3.84333e-11
3.79826e-11
3.73765e-11
3.66125e-11
3.569e-11
3.46121e-11
3.33866e-11
3.20276e-11
3.05559e-11
2.89995e-11
2.7392e-11
2.57711e-11
2.41758e-11
2.2643e-11
2.1205e-11
1.98868e-11
1.8705e-11
1.76679e-11
3.11e-11
3.10119e-11
3.08347e-11
3.05667e-11
3.02057e-11
2.97498e-11
2.91979e-11
2.85504e-11
2.78105e-11
2.69843e-11
2.60821e-11
2.51176e-11
2.41086e-11
2.30757e-11
2.2041e-11
2.10271e-11
2.00548e-11
1.91424e-11
1.8304e-11
1.75495e-11
2.644e-11
2.63849e-11
2.62741e-11
2.61063e-11
2.58802e-11
2.55942e-11
2.52472e-11
2.4839e-11
2.43706e-11
2.38449e-11
2.3267e-11
2.26442e-11
2.19862e-11
2.13047e-11
2.06129e-11
1.99246e-11
1.92536e-11
1.86125e-11
1.80123e-11
1.74615e-11
2.35082e-11
2.34723e-11
2.34001e-11
2.32908e-11
2.31433e-11
2.29565e-11
2.27297e-11
2.24622e-11
2.21545e-11
2.18079e-11
2.1425e-11
2.10098e-11
2.0568e-11
2.01064e-11
1.9633e-11
1.91568e-11
1.86866e-11
1.82313e-11
1.77988e-11
1.73959e-11
2.1591e-11
2.15668e-11
2.15182e-11
2.14446e-11
2.13454e-11
2.12196e-11
2.10667e-11
2.08863e-11
2.06783e-11
2.04434e-11
2.0183e-11
1.98995e-11
1.95962e-11
1.92773e-11
1.89479e-11
1.86136e-11
1.82806e-11
1.79548e-11
1.76419e-11
1.73472e-11
2.02991e-11
2.02824e-11
2.02489e-11
2.01982e-11
2.01297e-11
2.0043e-11
1.99376e-11
1.98131e-11
1.96694e-11
1.95069e-11
1.93264e-11
1.91293e-11
1.89177e-11
1.86942e-11
1.84622e-11
1.82253e-11
1.79876e-11
1.77533e-11
1.75265e-11
1.73109e-11
1.94085e-11
1.93968e-11
1.93733e-11
1.93377e-11
1.92896e-11
1.92288e-11
1.91549e-11
1.90675e-11
1.89667e-11
1.88526e-11
1.87257e-11
1.85869e-11
1.84375e-11
1.82793e-11
1.81144e-11
1.79454e-11
1.7775e-11
1.7606e-11
1.74414e-11
1.7284e-11
1.87842e-11
1.87758e-11
1.87591e-11
1.87338e-11
1.86996e-11
1.86564e-11
1.86039e-11
1.85419e-11
1.84704e-11
1.83894e-11
1.82994e-11
1.82007e-11
1.80945e-11
1.79817e-11
1.78639e-11
1.77427e-11
1.76202e-11
1.74982e-11
1.73788e-11
1.72641e-11
1.83411e-11
1.83351e-11
1.83231e-11
1.83049e-11
1.82804e-11
1.82495e-11
1.82119e-11
1.81676e-11
1.81164e-11
1.80586e-11
1.79942e-11
1.79237e-11
1.78477e-11
1.7767e-11
1.76825e-11
1.75955e-11
1.75073e-11
1.74192e-11
1.73328e-11
1.72494e-11
1.80239e-11
1.80196e-11
1.80109e-11
1.79978e-11
1.79802e-11
1.79579e-11
1.79309e-11
1.7899e-11
1.78623e-11
1.78208e-11
1.77746e-11
1.7724e-11
1.76695e-11
1.76116e-11
1.7551e-11
1.74885e-11
1.7425e-11
1.73615e-11
1.7299e-11
1.72385e-11
1.77957e-11
1.77926e-11
1.77863e-11
1.77768e-11
1.77641e-11
1.7748e-11
1.77285e-11
1.77055e-11
1.76791e-11
1.76492e-11
1.7616e-11
1.75798e-11
1.75406e-11
1.74991e-11
1.74556e-11
1.74106e-11
1.7365e-11
1.73193e-11
1.72742e-11
1.72305e-11
1.76309e-11
1.76287e-11
1.76241e-11
1.76173e-11
1.7608e-11
1.75964e-11
1.75823e-11
1.75658e-11
1.75467e-11
1.75253e-11
1.75014e-11
1.74754e-11
1.74473e-11
1.74175e-11
1.73863e-11
1.73541e-11
1.73214e-11
1.72885e-11
1.72562e-11
1.72247e-11
1.75119e-11
1.75102e-11
1.75069e-11
1.7502e-11
1.74953e-11
1.74869e-11
1.74768e-11
1.74648e-11
1.74511e-11
1.74357e-11
1.74186e-11
1.73999e-11
1.73798e-11
1.73585e-11
1.73362e-11
1.73131e-11
1.72897e-11
1.72662e-11
1.7243e-11
1.72205e-11
1.74258e-11
1.74246e-11
1.74223e-11
1.74187e-11
1.74139e-11
1.74078e-11
1.74005e-11
1.7392e-11
1.73821e-11
1.73711e-11
1.73588e-11
1.73455e-11
1.73311e-11
1.73159e-11
1.72999e-11
1.72835e-11
1.72668e-11
1.725e-11
1.72335e-11
1.72174e-11
1.73638e-11
1.73629e-11
1.73612e-11
1.73586e-11
1.73552e-11
1.73508e-11
1.73456e-11
1.73394e-11
1.73324e-11
1.73245e-11
1.73157e-11
1.73062e-11
1.7296e-11
1.72852e-11
1.72738e-11
1.72621e-11
1.72503e-11
1.72384e-11
1.72266e-11
1.72152e-11
1.73191e-11
1.73185e-11
1.73173e-11
1.73154e-11
1.73129e-11
1.73098e-11
1.73061e-11
1.73017e-11
1.72967e-11
1.7291e-11
1.72848e-11
1.72781e-11
1.72708e-11
1.72631e-11
1.72551e-11
1.72468e-11
1.72384e-11
1.723e-11
1.72217e-11
1.72136e-11
1.7287e-11
1.72866e-11
1.72857e-11
1.72844e-11
1.72826e-11
1.72804e-11
1.72778e-11
1.72746e-11
1.72711e-11
1.72671e-11
1.72627e-11
1.72579e-11
1.72528e-11
1.72473e-11
1.72417e-11
1.72358e-11
1.72299e-11
1.7224e-11
1.72181e-11
1.72124e-11
1.72641e-11
1.72638e-11
1.72632e-11
1.72623e-11
1.7261e-11
1.72594e-11
1.72576e-11
1.72553e-11
1.72528e-11
1.725e-11
1.72469e-11
1.72435e-11
1.72399e-11
1.72361e-11
1.72321e-11
1.7228e-11
1.72239e-11
1.72197e-11
1.72156e-11
1.72116e-11
1.72478e-11
1.72476e-11
1.72472e-11
1.72465e-11
1.72456e-11
1.72445e-11
1.72432e-11
1.72416e-11
1.72399e-11
1.72379e-11
1.72357e-11
1.72333e-11
1.72308e-11
1.72281e-11
1.72254e-11
1.72225e-11
1.72196e-11
1.72167e-11
1.72138e-11
1.7211e-11
1.72363e-11
1.72361e-11
1.72358e-11
1.72354e-11
1.72347e-11
1.7234e-11
1.7233e-11
1.72319e-11
1.72307e-11
1.72293e-11
1.72278e-11
1.72261e-11
1.72244e-11
1.72225e-11
1.72206e-11
1.72186e-11
1.72166e-11
1.72146e-11
1.72126e-11
1.72106e-11
1.72281e-11
1.7228e-11
1.72278e-11
1.72275e-11
1.72271e-11
1.72265e-11
1.72259e-11
1.72251e-11
1.72242e-11
1.72233e-11
1.72222e-11
1.72211e-11
1.72198e-11
1.72186e-11
1.72172e-11
1.72158e-11
1.72144e-11
1.72131e-11
1.72117e-11
1.72103e-11
1.72224e-11
1.72224e-11
1.72222e-11
1.7222e-11
1.72217e-11
1.72213e-11
1.72209e-11
1.72203e-11
1.72197e-11
1.72191e-11
1.72183e-11
1.72175e-11
1.72167e-11
1.72158e-11
1.72149e-11
1.72139e-11
1.7213e-11
1.7212e-11
1.72111e-11
1.72101e-11
1.72185e-11
1.72184e-11
1.72183e-11
1.72182e-11
1.72179e-11
1.72177e-11
1.72174e-11
1.7217e-11
1.72166e-11
1.72161e-11
1.72156e-11
1.72151e-11
1.72145e-11
1.72139e-11
1.72132e-11
1.72126e-11
1.72119e-11
1.72113e-11
1.72106e-11
1.721e-11
1.72157e-11
1.72157e-11
1.72156e-11
1.72155e-11
1.72154e-11
1.72152e-11
1.7215e-11
1.72147e-11
1.72144e-11
1.72141e-11
1.72138e-11
1.72134e-11
1.7213e-11
1.72126e-11
1.72121e-11
1.72117e-11
1.72112e-11
1.72108e-11
1.72103e-11
1.72099e-11
1.72138e-11
1.72138e-11
1.72138e-11
1.72137e-11
1.72136e-11
1.72135e-11
1.72133e-11
1.72131e-11
1.72129e-11
1.72127e-11
1.72125e-11
1.72122e-11
1.7212e-11
1.72117e-11
1.72114e-11
1.72111e-11
1.72107e-11
1.72104e-11
1.72101e-11
1.72098e-11
1.72126e-11
1.72126e-11
1.72125e-11
1.72125e-11
1.72124e-11
1.72123e-11
1.72122e-11
1.72121e-11
1.7212e-11
1.72118e-11
1.72116e-11
1.72115e-11
1.72113e-11
1.72111e-11
1.72109e-11
1.72106e-11
1.72104e-11
1.72102e-11
1.721e-11
1.72098e-11
1.72118e-11
1.72117e-11
1.72117e-11
1.72117e-11
1.72116e-11
1.72116e-11
1.72115e-11
1.72114e-11
1.72113e-11
1.72112e-11
1.72111e-11
1.7211e-11
1.72108e-11
1.72107e-11
1.72105e-11
1.72104e-11
1.72102e-11
1.72101e-11
1.72099e-11
1.72098e-11
1.72113e-11
1.72113e-11
1.72112e-11
1.72112e-11
1.72112e-11
1.72111e-11
1.72111e-11
1.7211e-11
1.72109e-11
1.72108e-11
1.72108e-11
1.72107e-11
1.72106e-11
1.72104e-11
1.72103e-11
1.72102e-11
1.72101e-11
1.721e-11
1.72099e-11
1.72097e-11
1.7211e-11
1.7211e-11
1.7211e-11
1.7211e-11
1.7211e-11
1.72109e-11
1.72109e-11
1.72108e-11
1.72108e-11
1.72107e-11
1.72106e-11
1.72105e-11
1.72104e-11
1.72103e-11
1.72102e-11
1.72101e-11
1.721e-11
1.72099e-11
1.72098e-11
1.72097e-11
)
;

boundaryField
{
    topWall
    {
        type            zeroGradient;
    }
    bottomWall
    {
        type            zeroGradient;
    }
    sideWallL
    {
        type            symmetry;
    }
    sideWallR
    {
        type            zeroGradient;
    }
    frontAndBack
    {
        type            empty;
    }
}


// ************************************************************************* //
