/*--------------------------------*- C++ -*----------------------------------*\
  =========                 |
  \\      /  F ield         | OpenFOAM: The Open Source CFD Toolbox
   \\    /   O peration     | Website:  https://openfoam.org
    \\  /    A nd           | Version:  7
     \\/     M anipulation  |
\*---------------------------------------------------------------------------*/
FoamFile
{
    version     2.0;
    format      ascii;
    class       volScalarField;
    location    "27";
    object      rhot1;
}
// * * * * * * * * * * * * * * * * * * * * * * * * * * * * * * * * * * * * * //

dimensions      [1 -3 0 0 0 0 0];

internalField   nonuniform List<scalar> 
900
(
0.0262255
0.0262009
0.02615
0.0260691
0.0259526
0.0257917
0.0255747
0.0252846
0.0248985
0.0243842
0.0236969
0.0227736
0.0215248
0.0198229
0.0174866
0.0142733
0.0099416
0.00470868
0.000684342
6.3768e-07
0.00205459
0.00204819
0.00203499
0.00201417
0.00198444
0.00194397
0.00189032
0.00182037
0.00173023
0.00161531
0.00147058
0.00129134
0.00107493
0.000824262
0.000553724
0.000296564
0.000104461
1.56977e-05
3.3948e-07
5.11108e-11
0.000162025
0.000161117
0.000159251
0.000156331
0.00015221
0.00014669
0.000139532
0.000130466
0.000119224
0.000105607
8.95865e-05
7.14833e-05
5.21891e-05
3.3366e-05
1.73733e-05
6.50099e-06
1.39526e-06
1.12601e-07
1.54132e-09
1.03881e-12
1.32406e-05
1.31313e-05
1.29081e-05
1.25618e-05
1.20792e-05
1.14444e-05
1.06406e-05
9.65417e-06
8.48026e-06
7.13216e-06
5.65277e-06
4.12608e-06
2.68087e-06
1.47284e-06
6.32008e-07
1.87e-07
3.13178e-08
2.18666e-09
4.18075e-11
1.79145e-13
1.15633e-06
1.14378e-06
1.11828e-06
1.07908e-06
1.02518e-06
9.55557e-07
8.69507e-07
7.67135e-07
6.50068e-07
5.22258e-07
3.9067e-07
2.65306e-07
1.57816e-07
7.81362e-08
2.99294e-08
7.99389e-09
1.29036e-09
1.05296e-10
3.72649e-12
7.17309e-14
1.11233e-07
1.09765e-07
1.06796e-07
1.02272e-07
9.61313e-08
8.8335e-08
7.8912e-08
6.80149e-08
5.59859e-08
4.34106e-08
3.11258e-08
2.01292e-08
1.13535e-08
5.33934e-09
1.97295e-09
5.31131e-10
9.5368e-11
1.05329e-11
7.14257e-13
4.20804e-14
1.21207e-08
1.19375e-08
1.15688e-08
1.10114e-08
1.02631e-08
9.32742e-09
8.21787e-09
6.96463e-09
5.61989e-09
4.26014e-09
2.98134e-09
1.88327e-09
1.04337e-09
4.89074e-10
1.85742e-10
5.44604e-11
1.1789e-11
1.85104e-12
2.26657e-13
3.01032e-14
1.53291e-09
1.50768e-09
1.4571e-09
1.38111e-09
1.28006e-09
1.1552e-09
1.00932e-09
8.47409e-10
6.77131e-10
5.08696e-10
3.53831e-10
2.23607e-10
1.25504e-10
6.09395e-11
2.48837e-11
8.32481e-12
2.24969e-12
5.00599e-13
1.01365e-13
2.41328e-14
2.29422e-10
2.25485e-10
2.17616e-10
2.05854e-10
1.90318e-10
1.71282e-10
1.49265e-10
1.25099e-10
9.99765e-11
7.53926e-11
5.2974e-11
3.41729e-11
1.99054e-11
1.02888e-11
4.64444e-12
1.81314e-12
6.15462e-13
1.88615e-13
5.75474e-14
2.07506e-14
4.11998e-11
4.04913e-11
3.9078e-11
3.69721e-11
3.42022e-11
3.08254e-11
2.69404e-11
2.26976e-11
1.8303e-11
1.40066e-11
1.00731e-11
6.73505e-12
4.14043e-12
2.31693e-12
1.17245e-12
5.37225e-13
2.26584e-13
9.17797e-14
3.86125e-14
1.86686e-14
8.95086e-12
8.80217e-12
8.50592e-12
8.06516e-12
7.48651e-12
6.78235e-12
5.97307e-12
5.089e-12
4.17062e-12
3.26647e-12
2.4277e-12
1.69995e-12
1.11427e-12
6.80728e-13
3.87615e-13
2.07346e-13
1.06349e-13
5.4302e-14
2.91208e-14
1.73128e-14
2.35997e-12
2.32345e-12
2.25069e-12
2.14246e-12
2.00036e-12
1.82726e-12
1.62786e-12
1.40904e-12
1.17993e-12
9.515e-13
7.35448e-13
5.4259e-13
3.80998e-13
2.54546e-13
1.62454e-13
1.00084e-13
6.06633e-14
3.7196e-14
2.38312e-14
1.63941e-14
7.54445e-13
7.43965e-13
7.23077e-13
6.91976e-13
6.51069e-13
6.01093e-13
5.43245e-13
4.79286e-13
4.1157e-13
3.42956e-13
2.76572e-13
2.15445e-13
1.6205e-13
1.1793e-13
8.34916e-14
5.80787e-14
4.02813e-14
2.83638e-14
2.06487e-14
1.5754e-14
2.91204e-13
2.87716e-13
2.80757e-13
2.70379e-13
2.56689e-13
2.39892e-13
2.20325e-13
1.98492e-13
1.75076e-13
1.5093e-13
1.27011e-13
1.04294e-13
8.36445e-14
6.57069e-14
5.08194e-14
3.89988e-14
2.999e-14
2.33634e-14
1.86237e-14
1.52986e-14
1.3463e-13
1.33298e-13
1.30639e-13
1.26663e-13
1.21402e-13
1.14914e-13
1.07302e-13
9.87248e-14
8.94043e-14
7.96235e-14
6.97132e-14
6.00258e-14
5.08986e-14
4.2615e-14
3.53718e-14
2.9262e-14
2.42779e-14
2.03307e-14
1.7281e-14
1.497e-14
7.35448e-14
7.29697e-14
7.18198e-14
7.0097e-14
6.78088e-14
6.49727e-14
6.16219e-14
5.78103e-14
5.3616e-14
4.9143e-14
4.45172e-14
3.98792e-14
3.53721e-14
3.11282e-14
2.72545e-14
2.3824e-14
2.0871e-14
1.83941e-14
1.63632e-14
1.47303e-14
4.65098e-14
4.62333e-14
4.56797e-14
4.48485e-14
4.37407e-14
4.23612e-14
4.07207e-14
3.88384e-14
3.67441e-14
3.44788e-14
3.20946e-14
2.96524e-14
2.72175e-14
2.48549e-14
2.2623e-14
2.05691e-14
1.87254e-14
1.71089e-14
1.57216e-14
1.45541e-14
3.31855e-14
3.30398e-14
3.27478e-14
3.23086e-14
3.17214e-14
3.09872e-14
3.01092e-14
2.90945e-14
2.79547e-14
2.67073e-14
2.53754e-14
2.3987e-14
2.2574e-14
2.117e-14
1.98074e-14
1.85154e-14
1.73177e-14
1.62312e-14
1.52656e-14
1.4424e-14
2.60052e-14
2.59224e-14
2.57563e-14
2.55061e-14
2.51707e-14
2.475e-14
2.42446e-14
2.3657e-14
2.29921e-14
2.22574e-14
2.14639e-14
2.06254e-14
1.97582e-14
1.88805e-14
1.80107e-14
1.7167e-14
1.63653e-14
1.56189e-14
1.49376e-14
1.43276e-14
2.18457e-14
2.17957e-14
2.16953e-14
2.15438e-14
2.13404e-14
2.10846e-14
2.07762e-14
2.0416e-14
2.00061e-14
1.95499e-14
1.90528e-14
1.8522e-14
1.79663e-14
1.73958e-14
1.68216e-14
1.62548e-14
1.57061e-14
1.51851e-14
1.46997e-14
1.4256e-14
1.92941e-14
1.92624e-14
1.91986e-14
1.91024e-14
1.89731e-14
1.88101e-14
1.86131e-14
1.83823e-14
1.81185e-14
1.78233e-14
1.74996e-14
1.71513e-14
1.67833e-14
1.64015e-14
1.60127e-14
1.56239e-14
1.52421e-14
1.48742e-14
1.45262e-14
1.42029e-14
1.76573e-14
1.76364e-14
1.75944e-14
1.7531e-14
1.74457e-14
1.7338e-14
1.72077e-14
1.70546e-14
1.68792e-14
1.66822e-14
1.64652e-14
1.62303e-14
1.59805e-14
1.57194e-14
1.54511e-14
1.51803e-14
1.49116e-14
1.46498e-14
1.43991e-14
1.41634e-14
1.65709e-14
1.65567e-14
1.65283e-14
1.64852e-14
1.64274e-14
1.63543e-14
1.62658e-14
1.61616e-14
1.60421e-14
1.59075e-14
1.57588e-14
1.55972e-14
1.54245e-14
1.52431e-14
1.50555e-14
1.48648e-14
1.46742e-14
1.44868e-14
1.43058e-14
1.41342e-14
1.5831e-14
1.58212e-14
1.58014e-14
1.57717e-14
1.57316e-14
1.5681e-14
1.56196e-14
1.55475e-14
1.54645e-14
1.5371e-14
1.52674e-14
1.51547e-14
1.50338e-14
1.49063e-14
1.47739e-14
1.46386e-14
1.45026e-14
1.43681e-14
1.42374e-14
1.41125e-14
1.53173e-14
1.53104e-14
1.52966e-14
1.52756e-14
1.52475e-14
1.52119e-14
1.51688e-14
1.51181e-14
1.50598e-14
1.49941e-14
1.49212e-14
1.48416e-14
1.47563e-14
1.4666e-14
1.4572e-14
1.44756e-14
1.43783e-14
1.42816e-14
1.41872e-14
1.40965e-14
1.49559e-14
1.49509e-14
1.49411e-14
1.49262e-14
1.49062e-14
1.4881e-14
1.48505e-14
1.48145e-14
1.47732e-14
1.47266e-14
1.46749e-14
1.46184e-14
1.45578e-14
1.44936e-14
1.44265e-14
1.43577e-14
1.4288e-14
1.42185e-14
1.41504e-14
1.40848e-14
1.4699e-14
1.46955e-14
1.46885e-14
1.46779e-14
1.46636e-14
1.46456e-14
1.46238e-14
1.45981e-14
1.45687e-14
1.45355e-14
1.44987e-14
1.44585e-14
1.44152e-14
1.43694e-14
1.43216e-14
1.42723e-14
1.42224e-14
1.41725e-14
1.41235e-14
1.40762e-14
1.45155e-14
1.4513e-14
1.45079e-14
1.45003e-14
1.449e-14
1.44771e-14
1.44615e-14
1.44432e-14
1.44221e-14
1.43984e-14
1.43721e-14
1.43435e-14
1.43126e-14
1.42799e-14
1.42457e-14
1.42106e-14
1.41748e-14
1.41391e-14
1.41039e-14
1.40699e-14
1.43838e-14
1.4382e-14
1.43783e-14
1.43729e-14
1.43655e-14
1.43563e-14
1.43451e-14
1.43319e-14
1.43169e-14
1.42999e-14
1.42812e-14
1.42607e-14
1.42387e-14
1.42154e-14
1.4191e-14
1.41659e-14
1.41404e-14
1.41148e-14
1.40897e-14
1.40653e-14
1.42892e-14
1.42879e-14
1.42853e-14
1.42813e-14
1.4276e-14
1.42694e-14
1.42614e-14
1.4252e-14
1.42412e-14
1.42291e-14
1.42157e-14
1.42012e-14
1.41855e-14
1.41689e-14
1.41515e-14
1.41336e-14
1.41155e-14
1.40973e-14
1.40794e-14
1.40619e-14
1.42212e-14
1.42203e-14
1.42184e-14
1.42156e-14
1.42118e-14
1.4207e-14
1.42013e-14
1.41946e-14
1.41869e-14
1.41783e-14
1.41688e-14
1.41584e-14
1.41472e-14
1.41355e-14
1.41231e-14
1.41104e-14
1.40976e-14
1.40846e-14
1.40719e-14
1.40595e-14
1.41724e-14
1.41718e-14
1.41704e-14
1.41684e-14
1.41657e-14
1.41623e-14
1.41582e-14
1.41535e-14
1.4148e-14
1.41419e-14
1.41351e-14
1.41277e-14
1.41198e-14
1.41115e-14
1.41028e-14
1.40938e-14
1.40847e-14
1.40756e-14
1.40666e-14
1.40578e-14
1.41375e-14
1.41371e-14
1.41361e-14
1.41347e-14
1.41327e-14
1.41303e-14
1.41274e-14
1.4124e-14
1.41202e-14
1.41158e-14
1.4111e-14
1.41058e-14
1.41003e-14
1.40944e-14
1.40882e-14
1.40819e-14
1.40755e-14
1.40691e-14
1.40627e-14
1.40566e-14
1.41126e-14
1.41123e-14
1.41116e-14
1.41106e-14
1.41092e-14
1.41075e-14
1.41055e-14
1.41031e-14
1.41003e-14
1.40973e-14
1.40939e-14
1.40902e-14
1.40863e-14
1.40822e-14
1.40779e-14
1.40734e-14
1.40689e-14
1.40644e-14
1.406e-14
1.40557e-14
1.40949e-14
1.40947e-14
1.40942e-14
1.40935e-14
1.40925e-14
1.40913e-14
1.40899e-14
1.40882e-14
1.40863e-14
1.40841e-14
1.40818e-14
1.40792e-14
1.40765e-14
1.40736e-14
1.40705e-14
1.40674e-14
1.40643e-14
1.40612e-14
1.40581e-14
1.4055e-14
1.40824e-14
1.40822e-14
1.40819e-14
1.40814e-14
1.40807e-14
1.40799e-14
1.40789e-14
1.40777e-14
1.40763e-14
1.40748e-14
1.40732e-14
1.40714e-14
1.40695e-14
1.40675e-14
1.40654e-14
1.40632e-14
1.4061e-14
1.40589e-14
1.40567e-14
1.40546e-14
1.40736e-14
1.40735e-14
1.40732e-14
1.40729e-14
1.40724e-14
1.40718e-14
1.40711e-14
1.40703e-14
1.40693e-14
1.40683e-14
1.40671e-14
1.40659e-14
1.40646e-14
1.40632e-14
1.40617e-14
1.40602e-14
1.40587e-14
1.40572e-14
1.40557e-14
1.40543e-14
1.40674e-14
1.40673e-14
1.40671e-14
1.40669e-14
1.40666e-14
1.40662e-14
1.40657e-14
1.40651e-14
1.40645e-14
1.40637e-14
1.40629e-14
1.40621e-14
1.40612e-14
1.40602e-14
1.40592e-14
1.40582e-14
1.40571e-14
1.40561e-14
1.40551e-14
1.40541e-14
1.40631e-14
1.4063e-14
1.40629e-14
1.40627e-14
1.40625e-14
1.40622e-14
1.40619e-14
1.40615e-14
1.40611e-14
1.40606e-14
1.406e-14
1.40594e-14
1.40588e-14
1.40581e-14
1.40574e-14
1.40567e-14
1.4056e-14
1.40553e-14
1.40546e-14
1.40539e-14
1.40601e-14
1.40601e-14
1.406e-14
1.40599e-14
1.40597e-14
1.40595e-14
1.40593e-14
1.4059e-14
1.40587e-14
1.40584e-14
1.4058e-14
1.40576e-14
1.40572e-14
1.40567e-14
1.40562e-14
1.40557e-14
1.40553e-14
1.40548e-14
1.40543e-14
1.40538e-14
1.40581e-14
1.40581e-14
1.4058e-14
1.40579e-14
1.40578e-14
1.40577e-14
1.40575e-14
1.40573e-14
1.40571e-14
1.40569e-14
1.40566e-14
1.40563e-14
1.4056e-14
1.40557e-14
1.40554e-14
1.40551e-14
1.40547e-14
1.40544e-14
1.40541e-14
1.40537e-14
1.40567e-14
1.40567e-14
1.40567e-14
1.40566e-14
1.40565e-14
1.40564e-14
1.40563e-14
1.40562e-14
1.4056e-14
1.40559e-14
1.40557e-14
1.40555e-14
1.40553e-14
1.40551e-14
1.40548e-14
1.40546e-14
1.40544e-14
1.40542e-14
1.40539e-14
1.40537e-14
1.40558e-14
1.40558e-14
1.40558e-14
1.40557e-14
1.40557e-14
1.40556e-14
1.40555e-14
1.40554e-14
1.40553e-14
1.40552e-14
1.40551e-14
1.4055e-14
1.40548e-14
1.40547e-14
1.40545e-14
1.40543e-14
1.40542e-14
1.4054e-14
1.40538e-14
1.40537e-14
1.40553e-14
1.40553e-14
1.40553e-14
1.40552e-14
1.40552e-14
1.40551e-14
1.40551e-14
1.4055e-14
1.40549e-14
1.40548e-14
1.40547e-14
1.40546e-14
1.40545e-14
1.40544e-14
1.40543e-14
1.40542e-14
1.4054e-14
1.40539e-14
1.40538e-14
1.40537e-14
1.40551e-14
1.4055e-14
1.4055e-14
1.4055e-14
1.4055e-14
1.40549e-14
1.40549e-14
1.40548e-14
1.40547e-14
1.40547e-14
1.40546e-14
1.40545e-14
1.40544e-14
1.40543e-14
1.40542e-14
1.40541e-14
1.4054e-14
1.40539e-14
1.40537e-14
1.40536e-14
)
;

boundaryField
{
    topWall
    {
        type            zeroGradient;
    }
    bottomWall
    {
        type            zeroGradient;
    }
    sideWallL
    {
        type            symmetry;
    }
    sideWallR
    {
        type            calculated;
        value           uniform 0;
    }
    frontAndBack
    {
        type            empty;
    }
}


// ************************************************************************* //
