/*--------------------------------*- C++ -*----------------------------------*\
  =========                 |
  \\      /  F ield         | OpenFOAM: The Open Source CFD Toolbox
   \\    /   O peration     | Website:  https://openfoam.org
    \\  /    A nd           | Version:  7
     \\/     M anipulation  |
\*---------------------------------------------------------------------------*/
FoamFile
{
    version     2.0;
    format      ascii;
    class       volScalarField;
    location    "27";
    object      T;
}
// * * * * * * * * * * * * * * * * * * * * * * * * * * * * * * * * * * * * * //

dimensions      [0 0 0 1 0 0 0];

internalField   nonuniform List<scalar> 
900
(
522.472
522.457
522.425
522.374
522.3
522.198
522.061
521.876
521.628
521.294
520.839
520.211
519.327
518.046
516.116
513.033
507.646
496.886
471.105
396.106
486.619
486.575
486.482
486.336
486.125
485.834
485.44
484.914
484.209
483.263
481.983
480.229
477.785
474.302
469.194
461.413
448.984
428.022
390.902
324.639
455.346
455.275
455.13
454.899
454.567
454.111
453.496
452.677
451.587
450.134
448.186
445.549
441.938
436.916
429.806
419.533
404.39
381.767
348.176
300.955
428.079
427.987
427.797
427.497
427.066
426.476
425.686
424.638
423.254
421.428
419.008
415.785
411.461
405.613
397.639
386.69
371.634
351.117
324.013
290.687
404.374
404.266
404.042
403.69
403.185
402.498
401.582
400.376
398.798
396.739
394.048
390.525
385.904
379.827
371.833
361.347
347.726
330.406
309.258
285.199
383.837
383.717
383.471
383.084
382.532
381.783
380.792
379.498
377.822
375.659
372.874
369.294
364.699
358.816
351.325
341.876
330.154
315.999
299.617
281.831
366.112
365.986
365.728
365.323
364.748
363.972
362.953
361.633
359.94
357.782
355.045
351.588
347.241
341.811
335.091
326.89
317.08
305.685
292.979
279.58
350.877
350.75
350.489
350.081
349.506
348.733
347.724
346.429
344.786
342.717
340.129
336.913
332.947
328.1
322.249
315.3
307.227
298.118
288.226
277.993
337.84
337.716
337.461
337.063
336.504
335.758
334.791
333.561
332.015
330.091
327.716
324.811
321.289
317.068
312.079
306.287
299.711
292.455
284.726
276.835
326.736
326.617
326.374
325.997
325.469
324.768
323.865
322.726
321.308
319.563
317.437
314.871
311.809
308.201
304.012
299.239
293.92
288.152
282.094
275.969
317.323
317.213
316.987
316.637
316.149
315.505
314.681
313.649
312.377
310.827
308.96
306.736
304.117
301.077
297.602
293.703
289.422
284.843
280.086
275.31
309.384
309.283
309.077
308.759
308.317
307.737
307
306.083
304.962
303.61
301.997
300.098
297.889
295.357
292.501
289.338
285.907
282.276
278.537
274.803
302.722
302.632
302.447
302.163
301.77
301.256
300.607
299.806
298.834
297.671
296.298
294.697
292.856
290.768
288.439
285.887
283.147
280.273
277.334
274.41
297.161
297.081
296.918
296.668
296.324
295.876
295.314
294.624
293.793
292.806
291.651
290.317
288.796
287.089
285.202
283.154
280.973
278.703
276.393
274.103
292.542
292.473
292.331
292.115
291.818
291.433
290.952
290.365
289.663
288.836
287.875
286.773
285.529
284.143
282.624
280.988
279.258
277.468
275.655
273.863
288.727
288.667
288.547
288.362
288.108
287.782
287.375
286.883
286.296
285.61
284.818
283.916
282.905
281.788
280.572
279.271
277.904
276.496
275.075
273.674
285.593
285.542
285.44
285.284
285.071
284.797
284.457
284.047
283.563
282.998
282.351
281.62
280.805
279.909
278.941
277.911
276.834
275.73
274.619
273.526
283.032
282.989
282.904
282.773
282.596
282.368
282.088
281.75
281.353
280.894
280.37
279.78
279.127
278.414
277.647
276.835
275.99
275.127
274.26
273.409
280.95
280.915
280.844
280.736
280.59
280.403
280.173
279.899
279.576
279.205
278.783
278.312
277.792
277.228
276.623
275.986
275.325
274.652
273.978
273.318
279.268
279.239
279.181
279.093
278.973
278.821
278.635
278.413
278.153
277.855
277.519
277.145
276.734
276.289
275.815
275.317
274.802
274.279
273.757
273.246
277.916
277.892
277.845
277.774
277.677
277.554
277.404
277.226
277.019
276.782
276.515
276.22
275.897
275.548
275.178
274.791
274.392
273.988
273.584
273.19
276.835
276.816
276.778
276.721
276.643
276.545
276.425
276.284
276.119
275.932
275.722
275.49
275.238
274.966
274.679
274.379
274.071
273.759
273.449
273.146
275.976
275.961
275.931
275.885
275.823
275.745
275.651
275.539
275.409
275.262
275.098
274.917
274.721
274.511
274.289
274.058
273.821
273.582
273.344
273.112
275.297
275.285
275.261
275.225
275.176
275.115
275.041
274.953
274.852
274.737
274.61
274.47
274.318
274.156
273.985
273.808
273.627
273.444
273.262
273.085
274.763
274.754
274.735
274.707
274.669
274.621
274.563
274.495
274.416
274.327
274.229
274.121
274.004
273.88
273.75
273.614
273.476
273.337
273.199
273.065
274.346
274.339
274.324
274.302
274.273
274.236
274.191
274.138
274.077
274.009
273.933
273.851
273.762
273.667
273.568
273.465
273.36
273.255
273.151
273.049
274.022
274.017
274.005
273.988
273.966
273.937
273.902
273.862
273.815
273.763
273.706
273.643
273.575
273.503
273.428
273.35
273.271
273.192
273.113
273.037
273.772
273.768
273.759
273.746
273.729
273.707
273.68
273.649
273.614
273.574
273.531
273.483
273.432
273.378
273.321
273.263
273.203
273.144
273.085
273.028
273.58
273.577
273.57
273.56
273.547
273.53
273.51
273.487
273.46
273.43
273.397
273.361
273.323
273.282
273.24
273.196
273.152
273.107
273.063
273.021
273.433
273.431
273.426
273.418
273.408
273.395
273.38
273.363
273.343
273.32
273.295
273.269
273.24
273.21
273.178
273.146
273.113
273.08
273.047
273.015
273.322
273.32
273.316
273.31
273.303
273.293
273.282
273.269
273.254
273.237
273.219
273.199
273.177
273.155
273.132
273.108
273.083
273.059
273.035
273.011
273.238
273.236
273.233
273.229
273.223
273.216
273.208
273.198
273.187
273.175
273.161
273.146
273.131
273.114
273.097
273.079
273.061
273.043
273.025
273.008
273.174
273.173
273.171
273.168
273.164
273.159
273.153
273.145
273.137
273.128
273.118
273.107
273.096
273.083
273.071
273.058
273.045
273.032
273.019
273.006
273.127
273.127
273.125
273.123
273.12
273.116
273.111
273.106
273.1
273.093
273.086
273.078
273.07
273.061
273.051
273.042
273.032
273.023
273.014
273.004
273.092
273.092
273.091
273.089
273.087
273.084
273.081
273.077
273.072
273.068
273.062
273.056
273.05
273.044
273.037
273.03
273.023
273.017
273.01
273.003
273.067
273.066
273.066
273.064
273.063
273.061
273.058
273.055
273.052
273.049
273.045
273.041
273.036
273.032
273.027
273.022
273.017
273.012
273.007
273.002
273.048
273.048
273.047
273.046
273.045
273.044
273.042
273.04
273.037
273.035
273.032
273.029
273.026
273.023
273.019
273.016
273.012
273.009
273.005
273.002
273.034
273.034
273.034
273.033
273.032
273.031
273.03
273.028
273.027
273.025
273.023
273.021
273.019
273.016
273.014
273.011
273.009
273.006
273.004
273.001
273.024
273.024
273.024
273.023
273.023
273.022
273.021
273.02
273.019
273.018
273.016
273.015
273.013
273.011
273.01
273.008
273.006
273.004
273.003
273.001
273.017
273.017
273.017
273.017
273.016
273.016
273.015
273.014
273.014
273.013
273.012
273.01
273.009
273.008
273.007
273.006
273.004
273.003
273.002
273.001
273.012
273.012
273.012
273.012
273.012
273.011
273.011
273.01
273.01
273.009
273.008
273.007
273.007
273.006
273.005
273.004
273.003
273.002
273.001
273
273.009
273.009
273.009
273.009
273.008
273.008
273.008
273.007
273.007
273.006
273.006
273.005
273.005
273.004
273.004
273.003
273.002
273.002
273.001
273
273.007
273.007
273.007
273.006
273.006
273.006
273.006
273.005
273.005
273.005
273.004
273.004
273.004
273.003
273.003
273.002
273.002
273.001
273.001
273
273.005
273.005
273.005
273.005
273.005
273.005
273.005
273.004
273.004
273.004
273.003
273.003
273.003
273.002
273.002
273.002
273.001
273.001
273.001
273
273.005
273.005
273.005
273.004
273.004
273.004
273.004
273.004
273.004
273.003
273.003
273.003
273.002
273.002
273.002
273.001
273.001
273.001
273
273
)
;

boundaryField
{
    topWall
    {
        type            zeroGradient;
    }
    bottomWall
    {
        type            codedFixedValue;
        value           uniform 543;
        name            heating;
        code            #{
            const scalar t = this->db().time().value();
            const scalar Ttemp = 273 + 10*t;
            operator==(Ttemp);
        #};
    }
    sideWallL
    {
        type            symmetry;
    }
    sideWallR
    {
        type            fixedValue;
        value           uniform 273;
    }
    frontAndBack
    {
        type            empty;
    }
}


// ************************************************************************* //
