/*--------------------------------*- C++ -*----------------------------------*\
  =========                 |
  \\      /  F ield         | OpenFOAM: The Open Source CFD Toolbox
   \\    /   O peration     | Website:  https://openfoam.org
    \\  /    A nd           | Version:  7
     \\/     M anipulation  |
\*---------------------------------------------------------------------------*/
FoamFile
{
    version     2.0;
    format      ascii;
    class       volScalarField;
    location    "30";
    object      gradTy;
}
// * * * * * * * * * * * * * * * * * * * * * * * * * * * * * * * * * * * * * //

dimensions      [0 -1 0 1 0 0 0];

internalField   nonuniform List<scalar> 
900
(
-208242
-208431
-208821
-209437
-210320
-211529
-213151
-215307
-218168
-221979
-227099
-234067
-243719
-257417
-277502
-308295
-358503
-447543
-623616
-1.01754e+06
-180545
-180718
-181074
-181634
-182436
-183530
-184989
-186916
-189450
-192790
-197211
-203109
-211052
-221869
-236744
-257260
-284937
-318398
-340200
-262303
-157549
-157698
-158005
-158486
-159170
-160096
-161318
-162910
-164966
-167613
-171011
-175359
-180884
-187799
-196143
-205350
-213060
-212171
-184540
-93346.6
-138137
-138258
-138504
-138889
-139430
-140152
-141088
-142279
-143771
-145615
-147859
-150521
-153548
-156715
-159415
-160242
-156226
-141663
-107273
-43308.7
-120760
-120848
-121029
-121308
-121693
-122196
-122828
-123600
-124515
-125564
-126703
-127829
-128724
-128962
-127751
-123701
-114535
-96948.5
-67282.3
-24371.5
-105179
-105236
-105350
-105522
-105753
-106042
-106382
-106760
-107148
-107492
-107697
-107595
-106907
-105176
-101686
-95376.1
-84811.4
-68378.7
-44980.3
-15497.4
-91251.2
-91277.8
-91329.5
-91403
-91492.2
-91586.1
-91666.6
-91703.6
-91648.9
-91425.8
-90914.8
-89933.1
-88206.8
-85338.3
-80776.6
-73812.7
-63646.3
-49601.5
-31567.3
-10618.4
-78844.6
-78844.4
-78841
-78828.2
-78795.1
-78724.6
-78590.6
-78354
-77957.2
-77316.1
-76309.8
-74767.6
-72455.7
-69064.6
-64209.9
-57458.3
-48406.9
-36838.9
-22958.8
-7626.79
-67835.8
-67813.3
-67764.3
-67680.8
-67549.1
-67348.8
-67050.2
-66611.2
-65972.8
-65053.9
-63745
-61901.9
-59340.3
-55837.1
-51141.5
-45008.1
-37258.9
-27880.5
-17138.1
-5652.58
-58108.7
-58068.7
-57984.5
-57846.9
-57641.5
-57346.7
-56932.5
-56357.8
-55567.6
-54490.1
-53032.9
-51081.4
-48499.3
-45133.6
-40830.3
-35461.1
-28966.9
-21412.6
-13039
-4281.44
-49552.9
-49500.4
-49391.1
-49215.9
-48960.3
-48603.7
-48117.8
-47465.2
-46598
-45455.6
-43964.3
-42037.3
-39577.9
-36486.2
-32672.7
-28078.4
-22702.3
-16630.8
-10059.8
-3293.43
-42063.5
-42003.1
-41878
-41679.9
-41395.2
-41005
-40484.3
-39800.7
-38914.1
-37775.9
-36329.3
-34511.1
-32255.2
-29499.2
-26194.7
-22321.5
-17904.1
-13026.6
-7841.26
-2561.76
-35540.2
-35475.8
-35343.1
-35134.6
-34838.2
-34437.5
-33911.1
-33232.1
-32368.1
-31281.4
-29929.7
-28268.3
-26253.7
-23848.6
-21030.1
-17798.3
-14186.3
-10267.4
-6157.64
-2008.65
-29887.7
-29822.4
-29688.7
-29479.7
-29185.4
-28791.8
-28281.3
-27632.2
-26819.2
-25813.7
-24585.2
-23102.9
-21339.2
-19273.5
-16897.4
-14221
-11277.9
-8128.77
-4861.17
-1583.9
-25015.2
-24951.6
-24821.8
-24620
-24337.9
-23964.1
-23484.4
-22881.9
-22137.1
-21229
-20136.1
-18837.9
-17317.6
-15565
-13580.1
-11376.6
-8985.35
-6455.01
-3851.55
-1253.81
-20837.3
-20777.2
-20654.9
-20465.6
-20202.7
-19857
-19417.4
-18870.9
-18203.1
-17398.8
-16443.1
-15323
-14028.7
-12556.5
-10910.6
-9105.46
-7167.46
-5135.27
-3058.56
-994.939
-17274
-17218.6
-17106.1
-16932.8
-16693.2
-16380.4
-15985.8
-15499.6
-14911.3
-14210.2
-13386.4
-12431.7
-11341.3
-10114.9
-8758.72
-7286.25
-5719.52
-4088.84
-2431.72
-790.559
-14251.1
-14201.1
-14099.7
-13944.1
-13730
-13452.1
-13103.9
-12678.3
-12167.8
-11564.9
-10863.3
-10058.2
-9147.7
-8133.52
-7022.24
-5825.93
-4562.57
-3255.78
-1933.91
-628.41
-11700.4
-11656
-11566.3
-11428.8
-11240.7
-10997.6
-10695
-10327.7
-9890.31
-9377.99
-8786.71
-8114
-7359.63
-6526.34
-5620.44
-4652.25
-3636.25
-2590.78
-1537.33
-499.334
-9559.55
-9520.82
-9442.52
-9323.03
-9159.97
-8950.37
-8690.8
-8377.6
-8007.16
-7576.29
-7082.64
-6525.16
-5904.6
-5224.02
-4489.11
-3708.51
-2893.76
-2059.08
-1220.77
-396.37
-7772.33
-7738.96
-7671.61
-7569.06
-7429.59
-7251.04
-7030.98
-6766.87
-6456.31
-6097.32
-5688.64
-5230.11
-4722.97
-4170.22
-3576.82
-2949.86
-2298.49
-1633.69
-967.845
-314.152
-6288.28
-6259.89
-6202.65
-6115.69
-5997.77
-5847.35
-5662.75
-5442.25
-5184.3
-4887.75
-4552.05
-4177.53
-3765.63
-3319.1
-2842.16
-2340.54
-1821.46
-1293.39
-765.755
-248.488
-5062.54
-5038.65
-4990.55
-4917.61
-4818.96
-4693.53
-4540.17
-4357.75
-4145.33
-3902.3
-3628.54
-3324.65
-2992.07
-2633.22
-2251.61
-1851.86
-1439.62
-1021.4
-604.387
-196.077
-4055.56
-4035.67
-3995.66
-3935.09
-3853.36
-3749.74
-3623.47
-3473.85
-3300.31
-3102.61
-2880.9
-2635.86
-2368.84
-2081.92
-1777.98
-1460.69
-1134.46
-804.312
-475.702
-154.296
-3232.71
-3216.31
-3183.34
-3133.52
-3066.42
-2981.57
-2878.48
-2756.72
-2616.02
-2456.33
-2277.94
-2081.54
-1868.34
-1640.09
-1399.11
-1148.31
-891.116
-631.385
-373.268
-121.049
-2563.93
-2550.52
-2523.6
-2482.97
-2428.35
-2359.44
-2275.94
-2177.61
-2064.34
-1936.22
-1793.59
-1637.1
-1467.8
-1287.12
-1096.94
-899.528
-697.553
-493.964
-291.918
-94.6513
-2023.28
-2012.41
-1990.61
-1957.75
-1913.65
-1858.12
-1790.99
-1712.15
-1621.6
-1519.48
-1406.13
-1282.16
-1148.43
-1006.12
-856.716
-702.005
-544.034
-385.063
-227.486
-73.7488
-1588.56
-1579.82
-1562.31
-1535.94
-1500.6
-1456.19
-1402.61
-1339.84
-1267.92
-1187.03
-1097.5
-999.834
-894.765
-783.235
-666.42
-545.706
-422.669
-299.032
-176.609
-57.2474
-1240.9
-1233.93
-1219.97
-1198.97
-1170.86
-1135.59
-1093.13
-1043.48
-986.729
-923.051
-852.74
-776.231
-694.113
-607.143
-516.239
-422.475
-327.059
-231.3
-136.571
-44.2638
-964.36
-958.843
-947.795
-931.188
-908.991
-881.179
-847.75
-808.739
-764.238
-714.412
-659.515
-599.908
-536.066
-468.587
-398.186
-325.69
-252.02
-178.17
-105.177
-34.0849
-745.588
-741.252
-732.57
-719.531
-702.121
-680.336
-654.192
-623.734
-589.053
-550.296
-507.679
-461.494
-412.123
-360.031
-305.773
-249.983
-193.361
-136.658
-80.6546
-26.1355
-573.453
-570.067
-563.293
-553.124
-539.561
-522.609
-502.293
-478.661
-451.797
-421.827
-388.93
-353.342
-315.362
-275.353
-233.742
-191.013
-147.695
-104.355
-61.5781
-19.9522
-438.745
-436.12
-430.869
-422.992
-412.494
-399.389
-383.701
-365.479
-344.794
-321.755
-296.504
-269.231
-240.169
-209.599
-177.847
-145.28
-112.297
-79.3248
-46.8005
-15.1628
-333.894
-331.872
-327.829
-321.768
-313.696
-303.628
-291.59
-277.625
-261.795
-244.186
-224.915
-204.129
-182.011
-158.775
-134.669
-109.97
-84.9795
-60.0148
-35.4026
-11.4692
-252.716
-251.169
-248.077
-243.443
-237.276
-229.592
-220.413
-209.777
-197.734
-184.355
-169.732
-153.98
-137.238
-119.671
-101.466
-82.831
-63.9911
-45.1832
-26.6499
-8.63307
-190.191
-189.016
-186.666
-183.147
-178.467
-172.64
-165.686
-157.636
-148.531
-138.427
-127.397
-115.529
-102.929
-89.7223
-76.0488
-62.0644
-47.9367
-33.8413
-19.9578
-6.46484
-142.267
-141.379
-139.607
-136.953
-133.426
-129.037
-123.804
-117.752
-110.913
-103.333
-95.0652
-86.1787
-76.7539
-66.8841
-56.6747
-46.2413
-35.7079
-25.2042
-14.8625
-4.81408
-105.69
-105.025
-103.698
-101.713
-99.0746
-95.7942
-91.8857
-87.3687
-82.2697
-76.6225
-70.4695
-63.8619
-56.8603
-49.5345
-41.9624
-34.2297
-26.4274
-18.6509
-10.9971
-3.56187
-77.8603
-77.3674
-76.3831
-74.9108
-72.9556
-70.5258
-67.6325
-64.2914
-60.5228
-56.3524
-51.8122
-46.9407
-41.7829
-36.3903
-30.8203
-25.1357
-19.403
-13.6918
-8.0723
-2.61445
-56.7068
-56.3456
-55.6245
-54.546
-53.1144
-51.3362
-49.2201
-46.778
-44.0253
-40.9814
-37.67
-34.1196
-30.3633
-26.4385
-22.3872
-18.2547
-14.0893
-9.94097
-5.86048
-1.89802
-40.5793
-40.3195
-39.8007
-39.0251
-37.996
-36.7182
-35.1984
-33.4454
-31.4707
-29.2885
-26.916
-24.3738
-21.6859
-18.879
-15.9833
-13.0309
-10.0561
-7.09461
-4.18219
-1.35443
-28.1584
-27.9773
-27.6158
-27.0754
-26.3585
-25.4688
-24.4109
-23.1914
-21.8183
-20.3017
-18.6537
-16.8889
-15.0237
-13.077
-11.0696
-9.02365
-6.96296
-4.91196
-2.89539
-0.937665
-18.3778
-18.2592
-18.0224
-17.6686
-17.1993
-16.617
-15.925
-15.1275
-14.2299
-13.2389
-12.1625
-11.0102
-9.79294
-8.52294
-7.21373
-5.87987
-4.53673
-3.20019
-1.88629
-0.610859
-10.3571
-10.2901
-10.1564
-9.95651
-9.69152
-9.36276
-8.97212
-8.52204
-8.01562
-7.45665
-6.8497
-6.20016
-5.51416
-4.79863
-4.06119
-3.31002
-2.55376
-1.80133
-1.06173
-0.343827
-3.34321
-3.32155
-3.27833
-3.21374
-3.12812
-3.0219
-2.89569
-2.75031
-2.58675
-2.40624
-2.21027
-2.00057
-1.77914
-1.5482
-1.31022
-1.06784
-0.823844
-0.581097
-0.342501
-0.110914
)
;

boundaryField
{
    topWall
    {
        type            calculated;
        value           uniform 0;
    }
    bottomWall
    {
        type            calculated;
        value           nonuniform List<scalar> 
20
(
-223196
-223391
-223794
-224431
-225345
-226597
-228280
-230519
-233497
-237475
-242841
-250181
-260427
-275141
-297138
-332047
-392723
-513585
-802710
-1.64073e+06
)
;
    }
    sideWallL
    {
        type            symmetry;
    }
    sideWallR
    {
        type            calculated;
        value           nonuniform List<scalar> 
45
(
-1.01754e+06
-262303
-93346.6
-43308.7
-24371.5
-15497.4
-10618.4
-7626.79
-5652.58
-4281.44
-3293.43
-2561.76
-2008.65
-1583.9
-1253.81
-994.939
-790.559
-628.41
-499.334
-396.37
-314.152
-248.488
-196.077
-154.296
-121.049
-94.6513
-73.7488
-57.2474
-44.2638
-34.0849
-26.1355
-19.9522
-15.1628
-11.4692
-8.63307
-6.46484
-4.81408
-3.56187
-2.61445
-1.89802
-1.35443
-0.937665
-0.610859
-0.343827
-0.110914
)
;
    }
    frontAndBack
    {
        type            empty;
    }
}


// ************************************************************************* //
