/*--------------------------------*- C++ -*----------------------------------*\
  =========                 |
  \\      /  F ield         | OpenFOAM: The Open Source CFD Toolbox
   \\    /   O peration     | Website:  https://openfoam.org
    \\  /    A nd           | Version:  7
     \\/     M anipulation  |
\*---------------------------------------------------------------------------*/
FoamFile
{
    version     2.0;
    format      ascii;
    class       volScalarField;
    location    "30";
    object      gradTx;
}
// * * * * * * * * * * * * * * * * * * * * * * * * * * * * * * * * * * * * * //

dimensions      [0 -1 0 1 0 0 0];

internalField   nonuniform List<scalar> 
900
(
-48.791
-149.513
-259.945
-387.568
-541.543
-733.758
-980.384
-1304.3
-1739.1
-2335.98
-3176.4
-4396.69
-6240.02
-9177.62
-14226.5
-23896.3
-45384.4
-102497
-281786
-889140
-140.116
-429.252
-745.904
-1111.19
-1550.86
-2098.08
-2797.63
-3712.21
-4932.68
-6595.24
-8911.46
-12223.5
-17110.5
-24604.9
-36650.8
-57105.2
-93864.2
-162616
-288208
-469706
-221.317
-677.676
-1176.38
-1749.73
-2436.68
-3286.9
-4366.37
-5765.8
-7613.69
-10097
-13495.3
-18237.6
-24999.6
-34869.1
-49617.4
-72089.3
-106523
-157760
-225692
-286637
-289.276
-885.128
-1534.24
-2276.85
-3160.86
-4246.26
-5611.05
-7359.8
-9635.91
-12640
-16657.2
-22097
-29550.8
-39864.1
-54202.3
-74022.1
-100685
-134096
-169384
-191819
-341.778
-1044.83
-1807.76
-2675.26
-3699.68
-4945.14
-6492.88
-8448.31
-10950.6
-14185.2
-18400.5
-23926.7
-31194
-40735.9
-53144.4
-68900.3
-87944
-108807
-127337
-136055
-378.06
-1154.55
-1993.42
-2940.59
-4048.83
-5381.18
-7015.08
-9047.35
-11600.2
-14827.8
-18922.6
-24118.2
-30683.1
-38890.6
-48942.1
-60806.4
-73932
-86842.9
-96807.1
-100166
-398.552
-1215.75
-2094.31
-3078.72
-4219.05
-5573.46
-7210.96
-9214.33
-11682.8
-14734.1
-18503.2
-23136.7
-28775
-35515.6
-43344.6
-52025.4
-60946.6
-68976
-74456.2
-75577.1
-404.631
-1232.83
-2118.66
-3103.27
-4231.91
-5555.59
-7132.59
-9029.65
-11322.3
-14093.7
-17429.9
-21410.2
-26088.3
-31460.4
-37416.5
-43676
-49720.7
-54763.9
-57824
-57980
-398.342
-1212.2
-2078.15
-3032.78
-4115.41
-5368.93
-6840.4
-8581.02
-10645
-13086.6
-15954.8
-19282.6
-23072
-27269.8
-31738.3
-36222.4
-40327.1
-43527.9
-45244.1
-44991.5
-382.092
-1161.35
-1986.17
-2888.03
-3899.94
-5056.74
-6394.98
-7952.17
-9765
-11866
-14277.9
-17005.5
-20023.5
-23261.6
-26587.5
-29793.4
-32593.2
-34643.1
-35596
-35189.3
-358.392
-1088.03
-1856.39
-2689.79
-3615.15
-4659.9
-5851.47
-7216.18
-8777.29
-10551.9
-12546.1
-14749
-17124.1
-19600.9
-22065.8
-24359
-26278.6
-27600
-28113
-27671.1
-329.639
-999.602
-1701.65
-2457.23
-3287.74
-4214.2
-5256.51
-6432.37
-7755.34
-9232.26
-10859.6
-12619.1
-14472.4
-16356.4
-18179.8
-19823
-21145.6
-22000.6
-22258.6
-21836.1
-297.975
-902.604
-1533.21
-2206.89
-2940.26
-3749.01
-4647.17
-5646.01
-6752.47
-7967.09
-9281.38
-10674.9
-12112.2
-13540.3
-14888.2
-16068.5
-16983.7
-17537.2
-17648.1
-17268.1
-265.198
-802.499
-1360.4
-1952.25
-2590.66
-3287.1
-4051.1
-4889.41
-5804.66
-6793.85
-7846.56
-8943.06
-10052.7
-11132.8
-12129.4
-12979.2
-13614.7
-13972
-13999.8
-13669.8
-232.738
-703.6
-1190.49
-1703.61
-2252.38
-2844.94
-3487.57
-4183.91
-4933.97
-5733.05
-6570.57
-7428.92
-8282.7
-9098.5
-9835.77
-10449
-10891.4
-11120.4
-11103.3
-10823
-201.659
-609.105
-1028.79
-1468.39
-1934.77
-2433.6
-2968.82
-3542.03
-4151.8
-4792.87
-5455.45
-6124.57
-6779.78
-7395.33
-7941.12
-8384.52
-8693.09
-8838.17
-8798.65
-8564.41
-172.698
-521.202
-878.894
-1251.43
-1643.74
-2059.65
-2501.49
-2969.59
-3461.83
-3973.08
-4494.75
-5014.52
-5516.26
-5980.39
-6384.71
-6705.84
-6921.25
-7011.53
-6962.95
-6769.51
-146.308
-441.224
-742.92
-1055.5
-1382.41
-1726.16
-2088
-2467.53
-2862.41
-3267.97
-3676.97
-4079.5
-4463.01
-4812.74
-5112.42
-5345.31
-5495.69
-5550.37
-5500.37
-5342.13
-122.714
-369.816
-621.835
-881.689
-1151.75
-1433.59
-1727.74
-2033.46
-2348.43
-2668.61
-2988.05
-3298.91
-3591.55
-3854.92
-4077.12
-4246.18
-4351.09
-4382.87
-4335.58
-4207.18
-101.965
-307.093
-515.724
-729.895
-951.187
-1180.54
-1418.05
-1662.81
-1912.72
-2164.38
-2412.98
-2652.42
-2875.35
-3073.55
-3238.33
-3361.12
-3434.22
-3451.45
-3408.92
-3305.47
-83.9817
-252.786
-424.041
-599.136
-779.093
-964.421
-1154.97
-1349.82
-1547.12
-1744.09
-1936.91
-2120.87
-2290.41
-2439.43
-2561.62
-2650.83
-2701.66
-2709.87
-2672.87
-2590.05
-68.5968
-206.369
-345.821
-487.875
-633.166
-781.925
-933.877
-1088.14
-1243.17
-1396.71
-1545.78
-1686.75
-1815.46
-1927.4
-2017.97
-2082.79
-2118.04
-2120.81
-2089.39
-2023.47
-55.5888
-167.156
-279.846
-394.256
-510.755
-629.401
-749.866
-871.367
-992.624
-1111.84
-1226.7
-1334.45
-1431.98
-1515.96
-1583.06
-1630.14
-1654.51
-1654.16
-1627.96
-1575.8
-44.7084
-134.38
-224.783
-316.285
-409.082
-503.131
-598.097
-693.307
-787.719
-879.92
-968.134
-1050.28
-1124.03
-1186.95
-1236.62
-1270.79
-1287.57
-1285.58
-1264.06
-1223.01
-35.6977
-107.255
-179.271
-251.96
-325.406
-399.515
-473.969
-548.205
-621.39
-692.422
-759.944
-822.39
-878.039
-925.103
-961.831
-986.618
-998.128
-995.401
-977.947
-945.805
-28.3045
-85.0115
-141.992
-199.361
-257.133
-315.189
-373.25
-430.849
-487.328
-541.837
-593.345
-640.681
-682.573
-717.713
-744.837
-762.796
-770.649
-767.733
-753.728
-728.693
-22.2911
-66.9288
-111.718
-156.709
-201.877
-247.101
-292.137
-336.611
-380.005
-421.669
-460.824
-496.598
-528.054
-554.239
-574.239
-587.236
-592.564
-589.766
-578.634
-559.235
-17.4401
-52.3484
-87.3298
-122.395
-157.501
-192.532
-227.284
-261.456
-294.65
-326.367
-356.026
-382.978
-406.534
-426.003
-440.724
-450.115
-453.707
-451.185
-442.414
-427.458
-13.5576
-40.6838
-67.8347
-94.9991
-122.126
-149.112
-175.788
-201.919
-227.197
-251.244
-273.627
-293.865
-311.455
-325.895
-336.71
-343.485
-345.889
-343.706
-336.85
-325.379
-10.4735
-31.4214
-52.3659
-73.2847
-94.1263
-114.801
-135.173
-155.059
-174.221
-192.378
-209.206
-224.351
-237.447
-248.129
-256.056
-260.935
-262.531
-260.697
-255.378
-246.623
-8.04141
-24.1196
-40.1795
-56.1944
-72.1165
-87.8706
-103.349
-118.408
-132.869
-146.521
-159.123
-170.417
-180.135
-188.015
-193.813
-197.318
-198.369
-196.862
-192.765
-186.117
-6.13693
-18.4036
-30.6454
-42.8353
-54.9312
-66.8715
-78.571
-89.92
-100.784
-111.004
-120.404
-128.795
-135.983
-141.779
-146.008
-148.522
-149.206
-147.991
-144.855
-139.833
-4.65581
-13.9594
-23.2366
-32.4624
-41.6009
-50.6025
-59.4008
-67.9122
-76.0355
-83.6537
-90.6372
-96.8482
-102.146
-106.396
-109.473
-111.271
-111.711
-110.746
-108.362
-104.587
-3.51167
-10.5272
-17.5177
-24.461
-31.3277
-38.078
-44.6611
-51.0135
-57.0598
-62.7137
-67.8804
-72.46
-76.3513
-79.457
-81.6888
-82.9721
-83.2515
-82.4941
-80.6934
-77.87
-2.63372
-7.89411
-13.1321
-18.3292
-23.4612
-28.4972
-33.3981
-38.1164
-42.5961
-46.7739
-50.5807
-53.9442
-56.7919
-59.0541
-60.6682
-61.5817
-61.7559
-61.1687
-59.8165
-57.7153
-1.96453
-5.88749
-9.79135
-13.6607
-17.4765
-21.2147
-24.8457
-28.3339
-31.6381
-34.7119
-37.5053
-39.9662
-42.0425
-43.6849
-44.8487
-45.4973
-45.6037
-45.1529
-44.1433
-42.587
-1.45794
-4.36875
-7.26372
-10.1305
-12.954
-15.7158
-18.3937
-20.9612
-23.3881
-25.6405
-27.6824
-29.4763
-30.985
-32.1735
-33.0103
-33.4696
-33.5328
-33.1898
-32.44
-31.2926
-1.07727
-3.22765
-5.36521
-7.48011
-9.56069
-11.593
-13.5602
-15.4429
-17.2189
-18.8637
-20.3513
-21.6549
-22.748
-23.6057
-24.2058
-24.5305
-24.5666
-24.3075
-23.7531
-22.9105
-0.793582
-2.37743
-3.95105
-5.50675
-7.03554
-8.52684
-9.96821
-11.3453
-12.6419
-13.8403
-14.9217
-15.8671
-16.6576
-17.2756
-17.7054
-17.9346
-17.9541
-17.7595
-17.3509
-16.7336
-0.584383
-1.75052
-2.9086
-4.05261
-5.1757
-6.26987
-7.32587
-8.33311
-9.27981
-10.1532
-10.9396
-11.6256
-12.1976
-12.6431
-12.9513
-13.1132
-13.1227
-12.9768
-12.6758
-12.2237
-0.432374
-1.29505
-2.15138
-2.99671
-3.82576
-4.6325
-5.41002
-6.15048
-6.84526
-7.48501
-8.06
-8.56035
-8.97649
-9.29951
-9.52165
-9.63671
-9.6404
-9.53067
-9.30793
-8.97513
-0.324515
-0.971897
-1.61424
-2.2479
-2.86878
-3.47225
-4.05309
-4.60543
-5.12283
-5.59842
-6.02503
-6.39547
-6.70277
-6.94049
-7.10307
-7.18606
-7.18645
-7.10285
-6.93565
-6.68709
-0.251243
-0.752388
-1.24944
-1.73945
-2.21916
-2.68493
-3.13267
-3.55785
-3.95552
-4.32045
-4.6472
-4.93034
-5.16466
-5.34534
-5.46825
-5.5301
-5.52871
-5.4631
-5.33364
-5.14208
-0.205887
-0.616515
-1.02366
-1.42482
-1.81726
-2.19796
-2.56354
-2.91029
-3.2342
-3.53101
-3.79637
-4.02593
-4.2155
-4.36129
-4.45999
-4.50906
-4.50677
-4.45241
-4.34632
-4.18993
-0.184228
-0.551636
-0.915852
-1.2746
-1.62541
-1.96554
-2.29195
-2.60134
-2.89012
-3.15453
-3.39071
-3.5948
-3.76314
-3.89237
-3.97964
-4.02268
-4.02003
-3.97107
-3.87613
-3.73652
)
;

boundaryField
{
    topWall
    {
        type            calculated;
        value           nonuniform List<scalar> 
20
(
-0.184228
-0.551636
-0.915852
-1.2746
-1.62541
-1.96554
-2.29195
-2.60134
-2.89012
-3.15453
-3.39071
-3.5948
-3.76314
-3.89237
-3.97964
-4.02268
-4.02003
-3.97107
-3.87613
-3.73652
)
;
    }
    bottomWall
    {
        type            calculated;
        value           nonuniform List<scalar> 
20
(
-48.791
-149.513
-259.945
-387.568
-541.543
-733.758
-980.384
-1304.3
-1739.1
-2335.98
-3176.4
-4396.69
-6240.02
-9177.62
-14226.5
-23896.3
-45384.4
-102497
-281786
-889140
)
;
    }
    sideWallL
    {
        type            symmetry;
    }
    sideWallR
    {
        type            calculated;
        value           nonuniform List<scalar> 
45
(
-1.35927e+06
-570578
-310056
-197192
-136821
-99705.5
-74831.7
-57232
-44324.5
-34621.7
-27198.8
-21447.9
-16951.7
-13413.4
-10616.1
-8398.13
-6636.36
-5235.89
-4122.72
-3238.56
-2537.24
-1981.95
-1543.28
-1197.64
-926.101
-713.451
-547.495
-418.455
-318.506
-241.4
-182.166
-136.858
-102.357
-76.207
-56.4807
-41.6747
-30.6213
-22.4184
-16.3738
-11.9606
-8.78174
-6.54286
-5.03108
-4.09942
-3.65577
)
;
    }
    frontAndBack
    {
        type            empty;
    }
}


// ************************************************************************* //
