/*--------------------------------*- C++ -*----------------------------------*\
  =========                 |
  \\      /  F ield         | OpenFOAM: The Open Source CFD Toolbox
   \\    /   O peration     | Website:  https://openfoam.org
    \\  /    A nd           | Version:  7
     \\/     M anipulation  |
\*---------------------------------------------------------------------------*/
FoamFile
{
    version     2.0;
    format      ascii;
    class       volScalarField;
    location    "30";
    object      rhoc;
}
// * * * * * * * * * * * * * * * * * * * * * * * * * * * * * * * * * * * * * //

dimensions      [1 -3 0 0 0 0 0];

internalField   nonuniform List<scalar> 
900
(
9.48937e-07
9.47121e-07
9.43378e-07
9.37475e-07
9.29047e-07
9.17561e-07
9.02288e-07
8.82244e-07
8.56126e-07
8.22225e-07
7.7833e-07
7.21647e-07
6.48793e-07
5.56056e-07
4.40415e-07
3.02636e-07
1.55624e-07
3.95333e-08
1.15362e-09
3.10624e-15
1.11067e-08
1.10364e-08
1.08925e-08
1.06684e-08
1.03541e-08
9.93667e-09
9.4005e-09
8.72872e-09
7.9057e-09
6.92184e-09
5.78145e-09
4.51481e-09
3.1933e-09
1.94113e-09
9.25146e-10
2.9092e-10
4.24166e-11
1.29375e-12
1.10612e-15
8.99626e-23
1.32177e-10
1.30673e-10
1.27621e-10
1.22937e-10
1.16509e-10
1.08225e-10
9.80066e-11
8.58747e-11
7.20297e-11
5.69585e-11
4.15286e-11
2.70077e-11
1.48906e-11
6.42046e-12
1.89463e-12
3.03891e-13
1.74674e-14
1.6422e-16
5.65452e-20
6.49243e-26
1.6378e-12
1.61039e-12
1.55526e-12
1.47198e-12
1.36038e-12
1.22115e-12
1.05674e-12
8.72348e-13
6.76973e-13
4.83791e-13
3.09168e-13
1.6932e-13
7.46275e-14
2.40714e-14
4.90614e-15
5.01275e-16
1.77595e-17
1.22522e-19
7.31509e-23
2.45367e-27
2.21923e-14
2.17033e-14
2.07289e-14
1.92808e-14
1.7386e-14
1.5098e-14
1.25099e-14
9.76433e-15
7.05417e-15
4.60418e-15
2.62531e-15
1.24772e-15
4.62447e-16
1.21544e-16
1.97619e-17
1.63529e-18
5.25106e-20
4.63534e-22
8.24212e-25
4.45455e-28
3.45758e-16
3.3646e-16
3.18103e-16
2.91236e-16
2.56858e-16
2.16585e-16
1.72783e-16
1.28569e-16
8.75429e-17
5.31596e-17
2.78094e-17
1.19618e-17
3.97263e-18
9.36077e-19
1.39893e-19
1.1482e-20
4.36309e-22
6.52541e-24
3.76807e-26
1.64967e-28
6.49557e-18
6.29452e-18
5.90071e-18
5.33205e-18
4.6184e-18
3.80367e-18
2.94615e-18
2.11486e-18
1.38004e-18
7.98219e-19
3.96009e-19
1.6151e-19
5.12854e-20
1.18419e-20
1.83013e-21
1.72386e-22
9.05194e-24
2.54269e-25
4.35339e-27
8.84263e-29
1.53563e-19
1.48349e-19
1.38201e-19
1.23705e-19
1.05788e-19
8.5735e-20
6.51388e-20
4.57418e-20
2.91504e-20
1.64725e-20
8.01731e-21
3.24224e-21
1.04317e-21
2.53868e-22
4.42268e-23
5.23614e-24
4.08497e-25
2.16751e-26
9.49332e-28
5.85722e-29
4.73621e-21
4.56699e-21
4.23914e-21
3.77433e-21
3.20578e-21
2.57769e-21
1.94232e-21
1.35377e-21
8.58655e-22
4.85758e-22
2.39245e-22
9.97133e-23
3.40572e-23
9.21378e-24
1.91272e-24
2.98424e-25
3.5261e-26
3.38784e-27
3.23251e-28
4.41786e-29
1.95984e-22
1.88885e-22
1.75166e-22
1.55797e-22
1.32232e-22
1.06357e-22
8.03372e-23
5.63455e-23
3.61896e-23
2.09391e-23
1.07093e-23
4.74142e-24
1.77812e-24
5.53624e-25
1.41162e-25
2.95087e-26
5.21601e-27
8.49513e-28
1.50777e-28
3.62349e-29
1.1093e-23
1.06994e-23
9.93935e-24
8.86715e-24
7.56343e-24
6.13125e-24
4.68744e-24
3.34804e-24
2.20944e-24
1.33016e-24
7.20528e-25
3.46242e-25
1.45709e-25
5.322e-26
1.68617e-26
4.70481e-27
1.20537e-27
3.07337e-28
8.77639e-29
3.14358e-29
8.68223e-25
8.39031e-25
7.82601e-25
7.02831e-25
6.05479e-25
4.97882e-25
3.88359e-25
2.85235e-25
1.95602e-25
1.24102e-25
7.21783e-26
3.81623e-26
1.82362e-26
7.86997e-27
3.09217e-27
1.13078e-27
4.01165e-28
1.46924e-28
5.96596e-29
2.83487e-29
9.43015e-26
9.13958e-26
8.57649e-26
7.7769e-26
6.7941e-26
5.69633e-26
4.56175e-26
3.47029e-26
2.49303e-26
1.68122e-26
1.05861e-26
6.20095e-27
3.377e-27
1.71763e-27
8.25962e-28
3.83994e-28
1.78442e-28
8.63356e-29
4.52103e-29
2.62725e-29
1.4186e-26
1.37996e-26
1.3048e-26
1.19739e-26
1.06408e-26
9.13106e-27
7.5406e-27
5.97058e-27
4.51575e-27
3.25159e-27
2.2239e-27
1.44414e-27
8.92691e-28
5.28888e-28
3.04031e-28
1.72672e-28
9.91206e-29
5.89062e-29
3.69826e-29
2.48305e-29
2.93649e-27
2.86855e-27
2.73585e-27
2.54476e-27
2.30492e-27
2.02895e-27
1.73199e-27
1.43053e-27
1.1409e-27
8.77382e-28
6.50404e-28
4.65413e-28
3.22685e-28
2.18218e-28
1.45353e-28
9.65678e-29
6.48957e-29
4.47159e-29
3.19376e-29
2.38052e-29
8.2577e-28
8.10248e-28
7.79787e-28
7.35569e-28
6.79403e-28
6.1371e-28
5.41468e-28
4.66058e-28
3.91008e-28
3.19662e-28
2.54823e-28
1.98455e-28
1.51519e-28
1.14e-28
8.51007e-29
6.35362e-29
4.78425e-29
3.66194e-29
2.86724e-29
2.30635e-29
3.0811e-28
3.03608e-28
2.94732e-28
2.81745e-28
2.65058e-28
2.45233e-28
2.22982e-28
1.99147e-28
1.74653e-28
1.50443e-28
1.27391e-28
1.06221e-28
8.74454e-29
7.13308e-29
5.79099e-29
4.70242e-29
3.83881e-29
3.16554e-29
2.64736e-29
2.25202e-29
1.46973e-28
1.45364e-28
1.42179e-28
1.37485e-28
1.31392e-28
1.24051e-28
1.15664e-28
1.06478e-28
9.6778e-29
8.68732e-29
7.70745e-29
6.76703e-29
5.89034e-29
5.09525e-29
4.39238e-29
3.78533e-29
3.27169e-29
2.84468e-29
2.4949e-29
2.21186e-29
8.55376e-29
8.48528e-29
8.34924e-29
8.14761e-29
7.88358e-29
7.56188e-29
7.18893e-29
6.77302e-29
6.32419e-29
5.85393e-29
5.3746e-29
4.89865e-29
4.43776e-29
4.002e-29
3.59923e-29
3.23472e-29
2.91119e-29
2.62906e-29
2.38689e-29
2.182e-29
5.7919e-29
5.75838e-29
5.69161e-29
5.59218e-29
5.46111e-29
5.29998e-29
5.11108e-29
4.89747e-29
4.6631e-29
4.41269e-29
4.15162e-29
3.88571e-29
3.62081e-29
3.36251e-29
3.11576e-29
2.88461e-29
2.67204e-29
2.47994e-29
2.30917e-29
2.15968e-29
4.37976e-29
4.36147e-29
4.32497e-29
4.27043e-29
4.19817e-29
4.10876e-29
4.00306e-29
3.8823e-29
3.74817e-29
3.60277e-29
3.44866e-29
3.28872e-29
3.12604e-29
2.96378e-29
2.80498e-29
2.65238e-29
2.50832e-29
2.37463e-29
2.25259e-29
2.14297e-29
3.58356e-29
3.57273e-29
3.55109e-29
3.51867e-29
3.47556e-29
3.42197e-29
3.35824e-29
3.28489e-29
3.20269e-29
3.11266e-29
3.01609e-29
2.91449e-29
2.80959e-29
2.70322e-29
2.59725e-29
2.4935e-29
2.39364e-29
2.2991e-29
2.21108e-29
2.13043e-29
3.10065e-29
3.09384e-29
3.0802e-29
3.05974e-29
3.03248e-29
2.99847e-29
2.95786e-29
2.91087e-29
2.8579e-29
2.79945e-29
2.73621e-29
2.66904e-29
2.59893e-29
2.52699e-29
2.45439e-29
2.38232e-29
2.31196e-29
2.24435e-29
2.18045e-29
2.12103e-29
2.79153e-29
2.78704e-29
2.77806e-29
2.76457e-29
2.74656e-29
2.72406e-29
2.69711e-29
2.66582e-29
2.63039e-29
2.59111e-29
2.54835e-29
2.50263e-29
2.45454e-29
2.40476e-29
2.35406e-29
2.30324e-29
2.25308e-29
2.20436e-29
2.15778e-29
2.11398e-29
2.58565e-29
2.5826e-29
2.57649e-29
2.56731e-29
2.55504e-29
2.53968e-29
2.52126e-29
2.49983e-29
2.4755e-29
2.44842e-29
2.41884e-29
2.38706e-29
2.35344e-29
2.31844e-29
2.28256e-29
2.24632e-29
2.21028e-29
2.17499e-29
2.14097e-29
2.10869e-29
2.44453e-29
2.4424e-29
2.43815e-29
2.43175e-29
2.4232e-29
2.41249e-29
2.39964e-29
2.38466e-29
2.36762e-29
2.34863e-29
2.32782e-29
2.30539e-29
2.28159e-29
2.2567e-29
2.23106e-29
2.20503e-29
2.17901e-29
2.15337e-29
2.1285e-29
2.10475e-29
2.34576e-29
2.34425e-29
2.34124e-29
2.33671e-29
2.33066e-29
2.32308e-29
2.31397e-29
2.30335e-29
2.29126e-29
2.27777e-29
2.26297e-29
2.24698e-29
2.22997e-29
2.21213e-29
2.1937e-29
2.17493e-29
2.15607e-29
2.13742e-29
2.11924e-29
2.1018e-29
2.2756e-29
2.27452e-29
2.27237e-29
2.26913e-29
2.2648e-29
2.25937e-29
2.25285e-29
2.24526e-29
2.2366e-29
2.22694e-29
2.21632e-29
2.20485e-29
2.19262e-29
2.17978e-29
2.16649e-29
2.1529e-29
2.13923e-29
2.12566e-29
2.11239e-29
2.09961e-29
2.22526e-29
2.22449e-29
2.22293e-29
2.2206e-29
2.21748e-29
2.21357e-29
2.20887e-29
2.2034e-29
2.19717e-29
2.19021e-29
2.18257e-29
2.1743e-29
2.16549e-29
2.15622e-29
2.14661e-29
2.13677e-29
2.12685e-29
2.11699e-29
2.10732e-29
2.09798e-29
2.1889e-29
2.18834e-29
2.18721e-29
2.18552e-29
2.18327e-29
2.18044e-29
2.17705e-29
2.1731e-29
2.1686e-29
2.16357e-29
2.15805e-29
2.15208e-29
2.14572e-29
2.13902e-29
2.13207e-29
2.12496e-29
2.11777e-29
2.11061e-29
2.10358e-29
2.09678e-29
2.16253e-29
2.16213e-29
2.16131e-29
2.16008e-29
2.15845e-29
2.1564e-29
2.15395e-29
2.15109e-29
2.14783e-29
2.1442e-29
2.14022e-29
2.1359e-29
2.13131e-29
2.12647e-29
2.12145e-29
2.11631e-29
2.11111e-29
2.10592e-29
2.10083e-29
2.09589e-29
2.14338e-29
2.14308e-29
2.14249e-29
2.1416e-29
2.14041e-29
2.13893e-29
2.13715e-29
2.13509e-29
2.13273e-29
2.13011e-29
2.12723e-29
2.12412e-29
2.12081e-29
2.11732e-29
2.1137e-29
2.10999e-29
2.10624e-29
2.10249e-29
2.09881e-29
2.09524e-29
2.12945e-29
2.12924e-29
2.12881e-29
2.12817e-29
2.12731e-29
2.12624e-29
2.12495e-29
2.12346e-29
2.12176e-29
2.11987e-29
2.11779e-29
2.11555e-29
2.11317e-29
2.11066e-29
2.10805e-29
2.10538e-29
2.10268e-29
2.09999e-29
2.09734e-29
2.09476e-29
2.11934e-29
2.11919e-29
2.11888e-29
2.11841e-29
2.11779e-29
2.11702e-29
2.11609e-29
2.11502e-29
2.11379e-29
2.11243e-29
2.11094e-29
2.10933e-29
2.10762e-29
2.10582e-29
2.10395e-29
2.10203e-29
2.1001e-29
2.09817e-29
2.09626e-29
2.09442e-29
2.11202e-29
2.11191e-29
2.11168e-29
2.11135e-29
2.1109e-29
2.11035e-29
2.10968e-29
2.1089e-29
2.10803e-29
2.10705e-29
2.10598e-29
2.10483e-29
2.1036e-29
2.10231e-29
2.10098e-29
2.09961e-29
2.09822e-29
2.09684e-29
2.09548e-29
2.09416e-29
2.10673e-29
2.10665e-29
2.10649e-29
2.10624e-29
2.10592e-29
2.10552e-29
2.10505e-29
2.10449e-29
2.10386e-29
2.10317e-29
2.1024e-29
2.10158e-29
2.1007e-29
2.09979e-29
2.09883e-29
2.09786e-29
2.09687e-29
2.09589e-29
2.09492e-29
2.09398e-29
2.10291e-29
2.10286e-29
2.10274e-29
2.10257e-29
2.10234e-29
2.10206e-29
2.10171e-29
2.10132e-29
2.10087e-29
2.10037e-29
2.09983e-29
2.09924e-29
2.09862e-29
2.09797e-29
2.09729e-29
2.0966e-29
2.0959e-29
2.0952e-29
2.09452e-29
2.09385e-29
2.10018e-29
2.10014e-29
2.10006e-29
2.09994e-29
2.09977e-29
2.09957e-29
2.09933e-29
2.09904e-29
2.09873e-29
2.09837e-29
2.09799e-29
2.09757e-29
2.09713e-29
2.09667e-29
2.09619e-29
2.0957e-29
2.09521e-29
2.09471e-29
2.09423e-29
2.09376e-29
2.09823e-29
2.0982e-29
2.09815e-29
2.09806e-29
2.09794e-29
2.0978e-29
2.09763e-29
2.09743e-29
2.0972e-29
2.09695e-29
2.09668e-29
2.09638e-29
2.09607e-29
2.09574e-29
2.09541e-29
2.09506e-29
2.09471e-29
2.09437e-29
2.09402e-29
2.09369e-29
2.09686e-29
2.09683e-29
2.09679e-29
2.09673e-29
2.09665e-29
2.09655e-29
2.09642e-29
2.09628e-29
2.09612e-29
2.09594e-29
2.09575e-29
2.09554e-29
2.09532e-29
2.09509e-29
2.09485e-29
2.09461e-29
2.09436e-29
2.09412e-29
2.09388e-29
2.09364e-29
2.09589e-29
2.09588e-29
2.09585e-29
2.0958e-29
2.09574e-29
2.09567e-29
2.09558e-29
2.09548e-29
2.09537e-29
2.09524e-29
2.0951e-29
2.09496e-29
2.0948e-29
2.09464e-29
2.09447e-29
2.09429e-29
2.09412e-29
2.09395e-29
2.09378e-29
2.09361e-29
2.09523e-29
2.09522e-29
2.0952e-29
2.09516e-29
2.09512e-29
2.09507e-29
2.09501e-29
2.09493e-29
2.09485e-29
2.09476e-29
2.09466e-29
2.09455e-29
2.09444e-29
2.09432e-29
2.0942e-29
2.09408e-29
2.09395e-29
2.09383e-29
2.09371e-29
2.09359e-29
2.09479e-29
2.09478e-29
2.09477e-29
2.09474e-29
2.09471e-29
2.09467e-29
2.09463e-29
2.09457e-29
2.09451e-29
2.09444e-29
2.09437e-29
2.09429e-29
2.09421e-29
2.09412e-29
2.09403e-29
2.09394e-29
2.09384e-29
2.09375e-29
2.09366e-29
2.09357e-29
2.09453e-29
2.09452e-29
2.09451e-29
2.09449e-29
2.09446e-29
2.09443e-29
2.09439e-29
2.09435e-29
2.0943e-29
2.09425e-29
2.09419e-29
2.09413e-29
2.09406e-29
2.09399e-29
2.09392e-29
2.09385e-29
2.09378e-29
2.09371e-29
2.09363e-29
2.09356e-29
2.0944e-29
2.0944e-29
2.09439e-29
2.09437e-29
2.09435e-29
2.09432e-29
2.09429e-29
2.09425e-29
2.09421e-29
2.09416e-29
2.09411e-29
2.09405e-29
2.094e-29
2.09394e-29
2.09387e-29
2.09381e-29
2.09375e-29
2.09368e-29
2.09362e-29
2.09356e-29
)
;

boundaryField
{
    topWall
    {
        type            zeroGradient;
    }
    bottomWall
    {
        type            zeroGradient;
    }
    sideWallL
    {
        type            symmetry;
    }
    sideWallR
    {
        type            zeroGradient;
    }
    frontAndBack
    {
        type            empty;
    }
}


// ************************************************************************* //
