/*--------------------------------*- C++ -*----------------------------------*\
  =========                 |
  \\      /  F ield         | OpenFOAM: The Open Source CFD Toolbox
   \\    /   O peration     | Website:  https://openfoam.org
    \\  /    A nd           | Version:  7
     \\/     M anipulation  |
\*---------------------------------------------------------------------------*/
FoamFile
{
    version     2.0;
    format      ascii;
    class       volScalarField;
    location    "30";
    object      rhog;
}
// * * * * * * * * * * * * * * * * * * * * * * * * * * * * * * * * * * * * * //

dimensions      [1 -3 0 0 0 0 0];

internalField   nonuniform List<scalar> 
900
(
0.0251177
0.0250885
0.0250283
0.0249333
0.0247973
0.0246113
0.0243627
0.0240342
0.0236022
0.0230342
0.0222859
0.021296
0.0199796
0.0182194
0.0158566
0.012694
0.00857875
0.0038514
0.000495165
2.78389e-07
0.00186216
0.00185527
0.00184109
0.00181886
0.00178738
0.00174496
0.0016894
0.00161793
0.00152722
0.0014135
0.00127293
0.00110246
0.000901525
0.00067522
0.000439169
0.000224384
7.33103e-05
9.60106e-06
1.52933e-07
9.38889e-12
0.000144027
0.000143067
0.000141105
0.000138055
0.000133792
0.000128152
0.000120945
0.00011197
0.000101058
8.81315e-05
7.33084e-05
5.70495e-05
4.03222e-05
2.4691e-05
1.21137e-05
4.15797e-06
7.80373e-07
5.01417e-08
4.45386e-10
1.19594e-13
1.1312e-05
1.12005e-05
1.09738e-05
1.0625e-05
1.01446e-05
9.5221e-06
8.74796e-06
7.81789e-06
6.73836e-06
5.53419e-06
4.25709e-06
2.99145e-06
1.85053e-06
9.52839e-07
3.74365e-07
9.77909e-08
1.36165e-08
7.1216e-10
8.44816e-12
1.61108e-14
9.24629e-07
9.12554e-07
8.88163e-07
8.51029e-07
8.00674e-07
7.36775e-07
6.59492e-07
5.69911e-07
4.70578e-07
3.66005e-07
2.62885e-07
1.69588e-07
9.44598e-08
4.29303e-08
1.46727e-08
3.35359e-09
4.34716e-10
2.58149e-11
5.7115e-13
5.58766e-15
8.10413e-08
7.97425e-08
7.71346e-08
7.32051e-08
6.79554e-08
6.14265e-08
5.3734e-08
4.51076e-08
3.59281e-08
2.67412e-08
1.82206e-08
1.10541e-08
5.75111e-09
2.43909e-09
7.88091e-10
1.77726e-10
2.51677e-11
2.01458e-12
8.82843e-14
2.99408e-15
7.84303e-09
7.69758e-09
7.40712e-09
6.97353e-09
6.40198e-09
5.70375e-09
4.89955e-09
4.02267e-09
3.12064e-09
2.25322e-09
1.48481e-09
8.70559e-10
4.39525e-10
1.83351e-10
6.00813e-11
1.45937e-11
2.4813e-12
2.85738e-13
2.36226e-14
2.01645e-15
8.6088e-10
8.43279e-10
8.08295e-10
7.56479e-10
6.88932e-10
6.07605e-10
5.15605e-10
4.17426e-10
3.18903e-10
2.26734e-10
1.47421e-10
8.57774e-11
4.35029e-11
1.86453e-11
6.52661e-12
1.80467e-12
3.85366e-13
6.42206e-14
9.21515e-15
1.55036e-15
1.09657e-10
1.07287e-10
1.02592e-10
9.56809e-11
8.6746e-11
7.61015e-11
6.42112e-11
5.17017e-11
3.93377e-11
2.79423e-11
1.82602e-11
1.07901e-11
5.65288e-12
2.57061e-12
9.94184e-13
3.22193e-13
8.75112e-14
2.06179e-14
4.69162e-15
1.29394e-15
1.65042e-11
1.61408e-11
1.54229e-11
1.43701e-11
1.30165e-11
1.14143e-11
9.63723e-12
7.78085e-12
5.95706e-12
4.28182e-12
2.85622e-12
1.74548e-12
9.64025e-13
4.74992e-13
2.06764e-13
7.93614e-14
2.72415e-14
8.745e-15
2.88994e-15
1.13907e-15
2.97219e-12
2.90776e-12
2.78065e-12
2.59465e-12
2.35609e-12
2.07444e-12
1.7627e-12
1.43726e-12
1.1169e-12
8.20776e-13
5.65509e-13
3.62059e-13
2.13591e-13
1.15358e-13
5.6925e-14
2.58318e-14
1.10115e-14
4.61068e-15
2.04049e-15
1.03938e-15
6.45032e-13
6.31704e-13
6.05418e-13
5.66962e-13
5.1764e-13
4.59361e-13
3.94709e-13
3.26898e-13
2.59589e-13
1.96522e-13
1.41e-13
9.53468e-14
6.05084e-14
3.59791e-14
2.01095e-14
1.06824e-14
5.5172e-15
2.87566e-15
1.58818e-15
9.72279e-16
1.69087e-13
1.65861e-13
1.59493e-13
1.50168e-13
1.38181e-13
1.23969e-13
1.08113e-13
9.13375e-14
7.44715e-14
5.83731e-14
4.3827e-14
3.1431e-14
2.15059e-14
1.40627e-14
8.84142e-15
5.41052e-15
3.28722e-15
2.03674e-15
1.32495e-15
9.25622e-16
5.34563e-14
5.25446e-14
5.07433e-14
4.80989e-14
4.46879e-14
4.06211e-14
3.60479e-14
3.11549e-14
2.61581e-14
2.12867e-14
1.67587e-14
1.27544e-14
9.39192e-15
6.71426e-15
4.69184e-15
3.23969e-15
2.24344e-15
1.58507e-15
1.16137e-15
8.92406e-16
2.02907e-14
1.99922e-14
1.94014e-14
1.85315e-14
1.74042e-14
1.60513e-14
1.45158e-14
1.28521e-14
1.11244e-14
9.40274e-15
7.75656e-15
6.24769e-15
4.92295e-15
3.80911e-15
2.9115e-15
2.21655e-15
1.6975e-15
1.32126e-15
1.05462e-15
8.68345e-16
9.17742e-15
9.06537e-15
8.84318e-15
8.51494e-15
8.08744e-15
7.57072e-15
6.97856e-15
6.32872e-15
5.64258e-15
4.94416e-15
4.25838e-15
3.60883e-15
3.01539e-15
2.49229e-15
2.04692e-15
1.67993e-15
1.38634e-15
1.15736e-15
9.82379e-16
8.50692e-16
4.88695e-15
4.83938e-15
4.74487e-15
4.60477e-15
4.42139e-15
4.19817e-15
3.93995e-15
3.65312e-15
3.34554e-15
3.02632e-15
2.70531e-15
2.39238e-15
2.09655e-15
1.82518e-15
1.58343e-15
1.37391e-15
1.19688e-15
1.05063e-15
9.32123e-16
8.37619e-16
3.0093e-15
2.98679e-15
2.942e-15
2.87539e-15
2.78779e-15
2.68047e-15
2.55525e-15
2.41463e-15
2.26174e-15
2.10036e-15
1.93472e-15
1.76926e-15
1.60832e-15
1.4558e-15
1.31485e-15
1.1877e-15
1.07554e-15
9.78631e-16
8.96438e-16
8.27872e-16
2.0939e-15
2.08222e-15
2.05893e-15
2.02421e-15
1.97835e-15
1.92184e-15
1.85542e-15
1.78013e-15
1.6973e-15
1.60862e-15
1.51604e-15
1.42169e-15
1.32777e-15
1.23641e-15
1.1495e-15
1.06858e-15
9.94773e-16
9.28735e-16
8.70708e-16
8.20573e-16
1.60532e-15
1.59877e-15
1.58569e-15
1.56614e-15
1.54023e-15
1.50815e-15
1.47022e-15
1.42687e-15
1.37873e-15
1.3266e-15
1.27141e-15
1.21426e-15
1.15633e-15
1.0988e-15
1.04283e-15
9.89414e-16
9.39412e-16
8.93452e-16
8.51945e-16
8.15089e-16
1.32447e-15
1.32055e-15
1.31272e-15
1.301e-15
1.28542e-15
1.26607e-15
1.24306e-15
1.21661e-15
1.18701e-15
1.15466e-15
1.12005e-15
1.08375e-15
1.04643e-15
1.00878e-15
9.71496e-16
9.35243e-16
9.00618e-16
8.68125e-16
8.3815e-16
8.10963e-16
1.15311e-15
1.15064e-15
1.14572e-15
1.13832e-15
1.12848e-15
1.11621e-15
1.10158e-15
1.08468e-15
1.06565e-15
1.04471e-15
1.02212e-15
9.98205e-16
9.73346e-16
9.47961e-16
9.22484e-16
8.97353e-16
8.72981e-16
8.49742e-16
8.2795e-16
8.07856e-16
1.04351e-15
1.0419e-15
1.03867e-15
1.03382e-15
1.02736e-15
1.01928e-15
1.00962e-15
9.9842e-16
9.85761e-16
9.71755e-16
9.56553e-16
9.40345e-16
9.2336e-16
9.05855e-16
8.8811e-16
8.70414e-16
8.53051e-16
8.36293e-16
8.2038e-16
8.05517e-16
9.70814e-16
9.69724e-16
9.67541e-16
9.64262e-16
9.59882e-16
9.54406e-16
9.47842e-16
9.40215e-16
9.31567e-16
9.21964e-16
9.11494e-16
9.00273e-16
8.88443e-16
8.76169e-16
8.63633e-16
8.51029e-16
8.38554e-16
8.264e-16
8.14749e-16
8.03758e-16
9.21213e-16
9.20459e-16
9.18948e-16
9.16678e-16
9.13644e-16
9.09846e-16
9.05289e-16
8.99986e-16
8.93961e-16
8.87252e-16
8.79916e-16
8.72024e-16
8.63669e-16
8.54957e-16
8.4601e-16
8.3696e-16
8.27944e-16
8.19099e-16
8.10556e-16
8.02437e-16
8.86647e-16
8.86116e-16
8.85052e-16
8.83453e-16
8.81316e-16
8.78639e-16
8.75424e-16
8.7168e-16
8.6742e-16
8.6267e-16
8.57465e-16
8.51851e-16
8.4589e-16
8.39653e-16
8.33222e-16
8.26689e-16
8.20149e-16
8.13699e-16
8.07435e-16
8.01448e-16
8.62178e-16
8.618e-16
8.61041e-16
8.599e-16
8.58376e-16
8.56466e-16
8.54173e-16
8.515e-16
8.48458e-16
8.45062e-16
8.41336e-16
8.37311e-16
8.33029e-16
8.28538e-16
8.23895e-16
8.19163e-16
8.14409e-16
8.09703e-16
8.05114e-16
8.00708e-16
8.4466e-16
8.44387e-16
8.43841e-16
8.43021e-16
8.41925e-16
8.40551e-16
8.38902e-16
8.36981e-16
8.34792e-16
8.32349e-16
8.29666e-16
8.26766e-16
8.23676e-16
8.20431e-16
8.1707e-16
8.13637e-16
8.1018e-16
8.06748e-16
8.0339e-16
8.00156e-16
8.32018e-16
8.31821e-16
8.31426e-16
8.30833e-16
8.3004e-16
8.29047e-16
8.27856e-16
8.26467e-16
8.24887e-16
8.23122e-16
8.21183e-16
8.19087e-16
8.16853e-16
8.14504e-16
8.12068e-16
8.09577e-16
8.07064e-16
8.04564e-16
8.02113e-16
7.99746e-16
8.22849e-16
8.22706e-16
8.2242e-16
8.21989e-16
8.21414e-16
8.20695e-16
8.19831e-16
8.18826e-16
8.17681e-16
8.16404e-16
8.15001e-16
8.13485e-16
8.11867e-16
8.10167e-16
8.08402e-16
8.06595e-16
8.04771e-16
8.02953e-16
8.01169e-16
7.99442e-16
8.1618e-16
8.16076e-16
8.15867e-16
8.15555e-16
8.15137e-16
8.14615e-16
8.13989e-16
8.1326e-16
8.12431e-16
8.11506e-16
8.10491e-16
8.09394e-16
8.08224e-16
8.06993e-16
8.05716e-16
8.04408e-16
8.03086e-16
8.01769e-16
8.00473e-16
7.99218e-16
8.11322e-16
8.11247e-16
8.11096e-16
8.10868e-16
8.10565e-16
8.10187e-16
8.09733e-16
8.09205e-16
8.08605e-16
8.07936e-16
8.07202e-16
8.06409e-16
8.05563e-16
8.04675e-16
8.03752e-16
8.02807e-16
8.01852e-16
8.00899e-16
7.99962e-16
7.99053e-16
8.07785e-16
8.07731e-16
8.07621e-16
8.07456e-16
8.07237e-16
8.06962e-16
8.06634e-16
8.06252e-16
8.05818e-16
8.05335e-16
8.04806e-16
8.04234e-16
8.03624e-16
8.02984e-16
8.02319e-16
8.01639e-16
8.0095e-16
8.00264e-16
7.99588e-16
7.98932e-16
8.05213e-16
8.05174e-16
8.05094e-16
8.04975e-16
8.04816e-16
8.04618e-16
8.04381e-16
8.04105e-16
8.03793e-16
8.03445e-16
8.03064e-16
8.02652e-16
8.02214e-16
8.01754e-16
8.01277e-16
8.00788e-16
8.00294e-16
7.99801e-16
7.99315e-16
7.98844e-16
8.03347e-16
8.03318e-16
8.03261e-16
8.03175e-16
8.03061e-16
8.02918e-16
8.02747e-16
8.02549e-16
8.02324e-16
8.02074e-16
8.01801e-16
8.01506e-16
8.01192e-16
8.00862e-16
8.00521e-16
8.00171e-16
7.99817e-16
7.99464e-16
7.99117e-16
7.9878e-16
8.01996e-16
8.01976e-16
8.01935e-16
8.01873e-16
8.01791e-16
8.01688e-16
8.01566e-16
8.01424e-16
8.01263e-16
8.01084e-16
8.00888e-16
8.00677e-16
8.00453e-16
8.00218e-16
7.99974e-16
7.99725e-16
7.99473e-16
7.99221e-16
7.98974e-16
7.98733e-16
8.01023e-16
8.01008e-16
8.00979e-16
8.00934e-16
8.00876e-16
8.00802e-16
8.00715e-16
8.00613e-16
8.00498e-16
8.00371e-16
8.00231e-16
8.00081e-16
7.99922e-16
7.99754e-16
7.99581e-16
7.99404e-16
7.99225e-16
7.99047e-16
7.98871e-16
7.987e-16
8.00324e-16
8.00314e-16
8.00293e-16
8.00261e-16
8.00219e-16
8.00167e-16
8.00104e-16
8.00032e-16
7.9995e-16
7.9986e-16
7.99761e-16
7.99654e-16
7.99541e-16
7.99422e-16
7.993e-16
7.99174e-16
7.99048e-16
7.98921e-16
7.98797e-16
7.98676e-16
7.99826e-16
7.99818e-16
7.99803e-16
7.99781e-16
7.99751e-16
7.99714e-16
7.99669e-16
7.99618e-16
7.9956e-16
7.99495e-16
7.99425e-16
7.9935e-16
7.9927e-16
7.99186e-16
7.99099e-16
7.99011e-16
7.98921e-16
7.98832e-16
7.98744e-16
7.98659e-16
7.99472e-16
7.99467e-16
7.99456e-16
7.9944e-16
7.99419e-16
7.99393e-16
7.99361e-16
7.99325e-16
7.99284e-16
7.99238e-16
7.99188e-16
7.99135e-16
7.99078e-16
7.99019e-16
7.98958e-16
7.98895e-16
7.98832e-16
7.98769e-16
7.98707e-16
7.98647e-16
7.99225e-16
7.99221e-16
7.99214e-16
7.99202e-16
7.99187e-16
7.99168e-16
7.99146e-16
7.9912e-16
7.9909e-16
7.99058e-16
7.99022e-16
7.98984e-16
7.98944e-16
7.98902e-16
7.98859e-16
7.98814e-16
7.9877e-16
7.98725e-16
7.98681e-16
7.98639e-16
7.99055e-16
7.99052e-16
7.99047e-16
7.99039e-16
7.99028e-16
7.99014e-16
7.98998e-16
7.98979e-16
7.98958e-16
7.98934e-16
7.98909e-16
7.98881e-16
7.98853e-16
7.98822e-16
7.98791e-16
7.98759e-16
7.98727e-16
7.98695e-16
7.98663e-16
7.98633e-16
7.98943e-16
7.98941e-16
7.98937e-16
7.98931e-16
7.98922e-16
7.98912e-16
7.989e-16
7.98886e-16
7.9887e-16
7.98853e-16
7.98834e-16
7.98813e-16
7.98792e-16
7.98769e-16
7.98746e-16
7.98723e-16
7.98699e-16
7.98675e-16
7.98652e-16
7.98629e-16
7.98875e-16
7.98873e-16
7.9887e-16
7.98865e-16
7.98859e-16
7.9885e-16
7.98841e-16
7.9883e-16
7.98817e-16
7.98803e-16
7.98788e-16
7.98772e-16
7.98755e-16
7.98738e-16
7.98719e-16
7.98701e-16
7.98682e-16
7.98663e-16
7.98645e-16
7.98627e-16
7.98843e-16
7.98841e-16
7.98839e-16
7.98834e-16
7.98829e-16
7.98821e-16
7.98813e-16
7.98803e-16
7.98792e-16
7.9878e-16
7.98767e-16
7.98753e-16
7.98738e-16
7.98723e-16
7.98706e-16
7.9869e-16
7.98674e-16
7.98657e-16
7.98641e-16
7.98626e-16
)
;

boundaryField
{
    topWall
    {
        type            calculated;
        value           uniform 0;
    }
    bottomWall
    {
        type            zeroGradient;
    }
    sideWallL
    {
        type            symmetry;
    }
    sideWallR
    {
        type            calculated;
        value           uniform 0;
    }
    frontAndBack
    {
        type            empty;
    }
}


// ************************************************************************* //
