/*--------------------------------*- C++ -*----------------------------------*\
  =========                 |
  \\      /  F ield         | OpenFOAM: The Open Source CFD Toolbox
   \\    /   O peration     | Website:  https://openfoam.org
    \\  /    A nd           | Version:  7
     \\/     M anipulation  |
\*---------------------------------------------------------------------------*/
FoamFile
{
    version     2.0;
    format      ascii;
    class       volScalarField;
    location    "30";
    object      rhois;
}
// * * * * * * * * * * * * * * * * * * * * * * * * * * * * * * * * * * * * * //

dimensions      [1 -3 0 0 0 0 0];

internalField   nonuniform List<scalar> 
900
(
0.0845304
0.0844633
0.0843247
0.0841054
0.0837906
0.0833587
0.0827789
0.0820087
0.0809886
0.0796358
0.0778334
0.0754137
0.0721321
0.0676238
0.0613334
0.0524092
0.0396513
0.0223056
0.00504411
2.2109e-05
0.0129331
0.0128989
0.0128287
0.0127181
0.0125606
0.0123469
0.0120644
0.0116966
0.0112224
0.0106155
0.00984469
0.00887542
0.00767519
0.00622719
0.00455993
0.00280154
0.00124355
0.000284247
1.4152e-05
1.32992e-08
0.00198051
0.00197106
0.00195168
0.00192139
0.00187869
0.00182154
0.00174739
0.00165318
0.00153557
0.00139134
0.00121823
0.0010164
0.000790838
0.00055453
0.000331093
0.000152589
4.54253e-05
6.23816e-06
2.07473e-07
6.07482e-10
0.000306698
0.000304532
0.00030011
0.000293252
0.000283693
0.0002711
0.000255094
0.000235303
0.000211452
0.000183507
0.000151891
0.000117758
8.32537e-05
5.15425e-05
2.6243e-05
9.95096e-06
2.39856e-06
2.86736e-07
1.20276e-08
1.51216e-10
4.90581e-05
4.85996e-05
4.76677e-05
4.62342e-05
4.426e-05
4.17009e-05
3.8517e-05
3.4687e-05
3.02299e-05
2.52339e-05
1.9888e-05
1.45058e-05
9.51655e-06
5.39175e-06
2.48806e-06
8.59962e-07
1.98162e-07
2.62803e-08
1.76775e-09
7.32115e-11
8.28809e-06
8.19314e-06
8.00109e-06
7.70799e-06
7.30904e-06
6.79995e-06
6.1793e-06
5.45163e-06
4.63146e-06
3.7475e-06
2.8456e-06
1.98767e-06
1.24323e-06
6.71518e-07
2.98522e-07
1.02693e-07
2.5422e-08
4.23562e-09
4.7557e-10
4.78354e-11
1.51119e-06
1.49119e-06
1.45093e-06
1.38993e-06
1.30778e-06
1.20442e-06
1.08065e-06
9.38721e-07
7.82969e-07
6.20326e-07
4.60316e-07
3.14166e-07
1.92674e-07
1.03123e-07
4.64936e-08
1.69717e-08
4.83485e-09
1.06039e-09
1.90757e-10
3.65122e-11
3.03306e-07
2.98895e-07
2.90044e-07
2.76722e-07
2.58941e-07
2.3683e-07
2.10737e-07
1.81333e-07
1.49709e-07
1.17423e-07
8.64154e-08
5.87618e-08
3.62434e-08
1.98457e-08
9.42642e-09
3.80207e-09
1.28792e-09
3.72905e-10
1.0033e-10
3.04808e-11
6.81571e-08
6.71133e-08
6.50255e-08
6.18985e-08
5.7754e-08
5.26462e-08
4.66824e-08
4.00428e-08
3.29958e-08
2.58962e-08
1.91595e-08
1.32029e-08
8.36e-09
4.79542e-09
2.45999e-09
1.12007e-09
4.55134e-10
1.70462e-10
6.36368e-11
2.68986e-11
1.73812e-08
1.71117e-08
1.65736e-08
1.57706e-08
1.47115e-08
1.34139e-08
1.19089e-08
1.0245e-08
8.49024e-09
6.73098e-09
5.06429e-09
3.58455e-09
2.36551e-09
1.44377e-09
8.10938e-10
4.199e-10
2.03327e-10
9.53384e-11
4.59959e-11
2.46133e-11
5.07984e-09
5.00291e-09
4.84955e-09
4.6212e-09
4.32083e-09
3.95397e-09
3.52972e-09
3.06169e-09
2.56843e-09
2.07278e-09
1.60002e-09
1.17456e-09
8.15801e-10
5.34358e-10
3.30236e-10
1.93908e-10
1.10032e-10
6.21656e-11
3.64342e-11
2.30822e-11
1.7121e-09
1.68767e-09
1.639e-09
1.56659e-09
1.47144e-09
1.35528e-09
1.22093e-09
1.07246e-09
9.15355e-10
7.56285e-10
6.02624e-10
4.61581e-10
3.39126e-10
2.39e-10
1.62148e-10
1.06835e-10
6.94187e-11
4.54674e-11
3.07843e-11
2.20201e-11
6.67453e-10
6.588e-10
6.41564e-10
6.15915e-10
5.82187e-10
5.40959e-10
4.93146e-10
4.4007e-10
3.83492e-10
3.25563e-10
2.68686e-10
2.15265e-10
1.67401e-10
1.26591e-10
9.35243e-11
6.80548e-11
4.93538e-11
3.61895e-11
2.72283e-11
2.12647e-11
3.00901e-10
2.97491e-10
2.90693e-10
2.80568e-10
2.67231e-10
2.50883e-10
2.31842e-10
2.10569e-10
1.8768e-10
1.63938e-10
1.40207e-10
1.17382e-10
9.62858e-11
7.75743e-11
6.16527e-11
4.86444e-11
3.84138e-11
3.06352e-11
2.48833e-11
2.07175e-11
1.5622e-10
1.54731e-10
1.51763e-10
1.47336e-10
1.41489e-10
1.34297e-10
1.25877e-10
1.164e-10
1.061e-10
9.52707e-11
8.42526e-11
7.34101e-11
6.30974e-11
5.36212e-11
4.52084e-11
3.79854e-11
3.19762e-11
2.71168e-11
2.32821e-11
2.03158e-11
9.25443e-11
9.18315e-11
9.04085e-11
8.8282e-11
8.54666e-11
8.19896e-11
7.78963e-11
7.32548e-11
6.81599e-11
6.27334e-11
5.71204e-11
5.14816e-11
4.59807e-11
4.07701e-11
3.59765e-11
3.169e-11
2.79588e-11
2.47907e-11
2.21602e-11
2.0018e-11
6.16461e-11
6.1275e-11
6.05335e-11
5.94234e-11
5.79497e-11
5.61228e-11
5.39606e-11
5.14917e-11
4.87568e-11
4.58096e-11
4.27165e-11
3.9553e-11
3.64e-11
3.33368e-11
3.04355e-11
2.77548e-11
2.5336e-11
2.32022e-11
2.13585e-11
1.97956e-11
4.53216e-11
4.5114e-11
4.46986e-11
4.40757e-11
4.32468e-11
4.22157e-11
4.09896e-11
3.95808e-11
3.80078e-11
3.62958e-11
3.44766e-11
3.25882e-11
3.06725e-11
2.87728e-11
2.6931e-11
2.51846e-11
2.35637e-11
2.20904e-11
2.07772e-11
1.96288e-11
3.60517e-11
3.59281e-11
3.56807e-11
3.53093e-11
3.4814e-11
3.4196e-11
3.34582e-11
3.26061e-11
3.16484e-11
3.05975e-11
2.94695e-11
2.82845e-11
2.70652e-11
2.58362e-11
2.46227e-11
2.34483e-11
2.23342e-11
2.12977e-11
2.03513e-11
1.95032e-11
3.04634e-11
3.0386e-11
3.02311e-11
2.99982e-11
2.9687e-11
2.92979e-11
2.88319e-11
2.82915e-11
2.7681e-11
2.70066e-11
2.62771e-11
2.55034e-11
2.46984e-11
2.38768e-11
2.30538e-11
2.22448e-11
2.14642e-11
2.07247e-11
2.00368e-11
1.94085e-11
2.69271e-11
2.68766e-11
2.67755e-11
2.66233e-11
2.64199e-11
2.6165e-11
2.5859e-11
2.55031e-11
2.50993e-11
2.46512e-11
2.41634e-11
2.36424e-11
2.30957e-11
2.25323e-11
2.19618e-11
2.13941e-11
2.08393e-11
2.03063e-11
1.98033e-11
1.9337e-11
2.46009e-11
2.45669e-11
2.44988e-11
2.43961e-11
2.42588e-11
2.40865e-11
2.38793e-11
2.36378e-11
2.33631e-11
2.3057e-11
2.27225e-11
2.23631e-11
2.19838e-11
2.15899e-11
2.11878e-11
2.07841e-11
2.03855e-11
1.99986e-11
1.96293e-11
1.9283e-11
2.30237e-11
2.30002e-11
2.2953e-11
2.2882e-11
2.2787e-11
2.26677e-11
2.25241e-11
2.23564e-11
2.21654e-11
2.1952e-11
2.17179e-11
2.14656e-11
2.1198e-11
2.09187e-11
2.06319e-11
2.03419e-11
2.00534e-11
1.97711e-11
1.94994e-11
1.92423e-11
2.19288e-11
2.19122e-11
2.1879e-11
2.18289e-11
2.17619e-11
2.16778e-11
2.15765e-11
2.14581e-11
2.1323e-11
2.11718e-11
2.10057e-11
2.08262e-11
2.06352e-11
2.04351e-11
2.02286e-11
2.00188e-11
1.9809e-11
1.96025e-11
1.94023e-11
1.92117e-11
2.11551e-11
2.11432e-11
2.11195e-11
2.10837e-11
2.10358e-11
2.09757e-11
2.09032e-11
2.08185e-11
2.07219e-11
2.06136e-11
2.04945e-11
2.03655e-11
2.0228e-11
2.00836e-11
1.99341e-11
1.97817e-11
1.96286e-11
1.94772e-11
1.93298e-11
1.91887e-11
2.06011e-11
2.05926e-11
2.05754e-11
2.05496e-11
2.0515e-11
2.04716e-11
2.04193e-11
2.03582e-11
2.02884e-11
2.02103e-11
2.01242e-11
2.0031e-11
1.99314e-11
1.98267e-11
1.9718e-11
1.9607e-11
1.94951e-11
1.93841e-11
1.92757e-11
1.91714e-11
2.02007e-11
2.01944e-11
2.0182e-11
2.01632e-11
2.01381e-11
2.01065e-11
2.00686e-11
2.00242e-11
1.99736e-11
1.99169e-11
1.98544e-11
1.97867e-11
1.97144e-11
1.96382e-11
1.95591e-11
1.94781e-11
1.93963e-11
1.9315e-11
1.92353e-11
1.91584e-11
1.99093e-11
1.99048e-11
1.98957e-11
1.98819e-11
1.98636e-11
1.98406e-11
1.98129e-11
1.97806e-11
1.97438e-11
1.97025e-11
1.9657e-11
1.96078e-11
1.95551e-11
1.94997e-11
1.9442e-11
1.93829e-11
1.93232e-11
1.92637e-11
1.92053e-11
1.91488e-11
1.96964e-11
1.96931e-11
1.96864e-11
1.96764e-11
1.9663e-11
1.96462e-11
1.9626e-11
1.96024e-11
1.95755e-11
1.95455e-11
1.95124e-11
1.94765e-11
1.94382e-11
1.93978e-11
1.93558e-11
1.93127e-11
1.92691e-11
1.92257e-11
1.9183e-11
1.91416e-11
1.95406e-11
1.95381e-11
1.95332e-11
1.95259e-11
1.95161e-11
1.95038e-11
1.94891e-11
1.94718e-11
1.94522e-11
1.94303e-11
1.94062e-11
1.93801e-11
1.93522e-11
1.93229e-11
1.92923e-11
1.9261e-11
1.92293e-11
1.91976e-11
1.91665e-11
1.91363e-11
1.94263e-11
1.94246e-11
1.9421e-11
1.94156e-11
1.94085e-11
1.93995e-11
1.93887e-11
1.93762e-11
1.93619e-11
1.93459e-11
1.93284e-11
1.93095e-11
1.92892e-11
1.92679e-11
1.92457e-11
1.9223e-11
1.91999e-11
1.9177e-11
1.91543e-11
1.91324e-11
1.93427e-11
1.93414e-11
1.93388e-11
1.93349e-11
1.93296e-11
1.93231e-11
1.93153e-11
1.93061e-11
1.92958e-11
1.92842e-11
1.92715e-11
1.92577e-11
1.9243e-11
1.92276e-11
1.92115e-11
1.91951e-11
1.91784e-11
1.91618e-11
1.91454e-11
1.91295e-11
1.92815e-11
1.92806e-11
1.92787e-11
1.92758e-11
1.9272e-11
1.92673e-11
1.92616e-11
1.9255e-11
1.92474e-11
1.9239e-11
1.92298e-11
1.92199e-11
1.92093e-11
1.91981e-11
1.91866e-11
1.91747e-11
1.91627e-11
1.91507e-11
1.91389e-11
1.91274e-11
1.92369e-11
1.92362e-11
1.92348e-11
1.92328e-11
1.923e-11
1.92266e-11
1.92224e-11
1.92177e-11
1.92122e-11
1.92062e-11
1.91995e-11
1.91924e-11
1.91847e-11
1.91767e-11
1.91684e-11
1.91598e-11
1.91512e-11
1.91426e-11
1.91341e-11
1.91258e-11
1.92044e-11
1.92039e-11
1.9203e-11
1.92015e-11
1.91995e-11
1.9197e-11
1.9194e-11
1.91906e-11
1.91866e-11
1.91823e-11
1.91775e-11
1.91724e-11
1.91669e-11
1.91611e-11
1.91552e-11
1.91491e-11
1.91429e-11
1.91367e-11
1.91306e-11
1.91247e-11
1.91809e-11
1.91806e-11
1.91798e-11
1.91788e-11
1.91773e-11
1.91755e-11
1.91734e-11
1.91709e-11
1.91681e-11
1.9165e-11
1.91616e-11
1.91579e-11
1.9154e-11
1.91499e-11
1.91456e-11
1.91413e-11
1.91368e-11
1.91324e-11
1.91281e-11
1.91239e-11
1.91639e-11
1.91637e-11
1.91632e-11
1.91624e-11
1.91614e-11
1.91601e-11
1.91585e-11
1.91568e-11
1.91548e-11
1.91525e-11
1.91501e-11
1.91475e-11
1.91447e-11
1.91418e-11
1.91387e-11
1.91356e-11
1.91325e-11
1.91294e-11
1.91263e-11
1.91233e-11
1.91517e-11
1.91515e-11
1.91512e-11
1.91506e-11
1.91499e-11
1.9149e-11
1.91479e-11
1.91466e-11
1.91452e-11
1.91436e-11
1.91419e-11
1.914e-11
1.9138e-11
1.9136e-11
1.91338e-11
1.91316e-11
1.91294e-11
1.91272e-11
1.9125e-11
1.91229e-11
1.9143e-11
1.91429e-11
1.91426e-11
1.91422e-11
1.91417e-11
1.91411e-11
1.91403e-11
1.91394e-11
1.91384e-11
1.91372e-11
1.9136e-11
1.91347e-11
1.91333e-11
1.91318e-11
1.91303e-11
1.91288e-11
1.91272e-11
1.91256e-11
1.91241e-11
1.91226e-11
1.91368e-11
1.91367e-11
1.91366e-11
1.91363e-11
1.91359e-11
1.91354e-11
1.91349e-11
1.91343e-11
1.91335e-11
1.91327e-11
1.91319e-11
1.91309e-11
1.91299e-11
1.91289e-11
1.91278e-11
1.91267e-11
1.91256e-11
1.91245e-11
1.91234e-11
1.91224e-11
1.91325e-11
1.91324e-11
1.91323e-11
1.91321e-11
1.91318e-11
1.91315e-11
1.91311e-11
1.91307e-11
1.91302e-11
1.91296e-11
1.9129e-11
1.91283e-11
1.91276e-11
1.91269e-11
1.91261e-11
1.91253e-11
1.91245e-11
1.91238e-11
1.9123e-11
1.91222e-11
1.91295e-11
1.91295e-11
1.91294e-11
1.91292e-11
1.91291e-11
1.91288e-11
1.91285e-11
1.91282e-11
1.91278e-11
1.91274e-11
1.9127e-11
1.91265e-11
1.9126e-11
1.91255e-11
1.91249e-11
1.91244e-11
1.91238e-11
1.91232e-11
1.91227e-11
1.91221e-11
1.91276e-11
1.91275e-11
1.91275e-11
1.91274e-11
1.91272e-11
1.9127e-11
1.91268e-11
1.91266e-11
1.91263e-11
1.9126e-11
1.91257e-11
1.91253e-11
1.91249e-11
1.91245e-11
1.91241e-11
1.91237e-11
1.91233e-11
1.91229e-11
1.91225e-11
1.91221e-11
1.91264e-11
1.91264e-11
1.91263e-11
1.91262e-11
1.91261e-11
1.9126e-11
1.91258e-11
1.91256e-11
1.91254e-11
1.91251e-11
1.91249e-11
1.91246e-11
1.91243e-11
1.9124e-11
1.91237e-11
1.91233e-11
1.9123e-11
1.91227e-11
1.91223e-11
1.9122e-11
1.91258e-11
1.91258e-11
1.91257e-11
1.91257e-11
1.91256e-11
1.91254e-11
1.91253e-11
1.91251e-11
1.91249e-11
1.91247e-11
1.91245e-11
1.91242e-11
1.9124e-11
1.91237e-11
1.91234e-11
1.91231e-11
1.91229e-11
1.91226e-11
1.91223e-11
1.9122e-11
)
;

boundaryField
{
    topWall
    {
        type            zeroGradient;
    }
    bottomWall
    {
        type            zeroGradient;
    }
    sideWallL
    {
        type            symmetry;
    }
    sideWallR
    {
        type            zeroGradient;
    }
    frontAndBack
    {
        type            empty;
    }
}


// ************************************************************************* //
