/*--------------------------------*- C++ -*----------------------------------*\
  =========                 |
  \\      /  F ield         | OpenFOAM: The Open Source CFD Toolbox
   \\    /   O peration     | Website:  https://openfoam.org
    \\  /    A nd           | Version:  7
     \\/     M anipulation  |
\*---------------------------------------------------------------------------*/
FoamFile
{
    version     2.0;
    format      ascii;
    class       volScalarField;
    location    "30";
    object      T;
}
// * * * * * * * * * * * * * * * * * * * * * * * * * * * * * * * * * * * * * //

dimensions      [0 0 0 1 0 0 0];

internalField   nonuniform List<scalar> 
900
(
550.68
550.661
550.621
550.557
550.466
550.34
550.172
549.948
549.65
549.252
548.716
547.982
546.957
545.486
543.286
539.795
533.728
521.642
492.729
408.927
512.023
511.967
511.851
511.668
511.407
511.048
510.567
509.929
509.083
507.956
506.444
504.391
501.555
497.547
491.713
482.887
468.871
445.341
403.825
330.058
478.462
478.374
478.191
477.903
477.491
476.928
476.176
475.182
473.87
472.136
469.831
466.738
462.536
456.738
448.589
436.891
419.753
394.282
356.649
304.006
449.003
448.888
448.649
448.274
447.739
447.01
446.04
444.765
443.096
440.911
438.04
434.248
429.201
422.428
413.256
400.747
383.647
360.473
330.009
292.719
423.207
423.071
422.789
422.348
421.719
420.868
419.741
418.27
416.362
413.89
410.688
406.53
401.117
394.052
384.823
372.795
357.263
337.617
313.74
286.682
400.7
400.548
400.238
399.751
399.061
398.131
396.909
395.325
393.29
390.685
387.359
383.116
377.712
370.843
362.155
351.266
337.833
321.693
303.096
282.971
381.136
380.976
380.649
380.139
379.418
378.451
377.189
375.567
373.503
370.893
367.609
363.492
358.354
351.982
344.148
334.644
323.338
310.266
295.748
280.483
364.199
364.037
363.706
363.19
362.465
361.497
360.242
358.644
356.63
354.115
350.993
347.143
342.429
336.708
329.845
321.741
312.374
301.853
290.469
278.723
349.598
349.439
349.113
348.607
347.9
346.961
345.752
344.225
342.32
339.967
337.085
333.585
329.372
324.356
318.464
311.661
303.975
295.53
286.564
277.432
337.065
336.912
336.6
336.117
335.445
334.557
333.422
331.999
330.241
328.093
325.495
322.382
318.693
314.373
309.388
303.738
297.471
290.701
283.614
276.462
326.354
326.211
325.919
325.469
324.843
324.022
322.979
321.682
320.093
318.171
315.872
313.153
309.973
306.303
302.132
297.477
292.389
286.965
281.349
275.72
317.244
317.112
316.844
316.431
315.861
315.116
314.175
313.013
311.602
309.911
307.909
305.567
302.862
299.778
296.319
292.506
288.39
284.048
279.59
275.145
309.529
309.41
309.168
308.797
308.285
307.62
306.786
305.762
304.527
303.061
301.34
299.348
297.07
294.503
291.654
288.548
285.227
281.754
278.212
274.695
303.027
302.921
302.706
302.377
301.926
301.341
300.611
299.721
298.655
297.399
295.937
294.26
292.36
290.239
287.907
285.387
282.715
279.941
277.127
274.341
297.574
297.481
297.293
297.005
296.611
296.104
295.473
294.709
293.8
292.735
291.506
290.107
288.535
286.794
284.895
282.859
280.716
278.503
276.268
274.062
293.021
292.941
292.778
292.529
292.19
291.755
291.217
290.568
289.8
288.907
287.883
286.725
285.433
284.013
282.475
280.837
279.121
277.359
275.586
273.84
289.239
289.17
289.031
288.818
288.53
288.161
287.706
287.16
286.518
285.776
284.929
283.978
282.923
281.771
280.531
279.217
277.849
276.449
275.044
273.664
286.112
286.053
285.935
285.756
285.513
285.203
284.823
284.368
283.836
283.223
282.528
281.752
280.897
279.967
278.972
277.922
276.833
275.724
274.613
273.524
283.539
283.49
283.391
283.241
283.038
282.78
282.465
282.089
281.651
281.15
280.584
279.954
279.264
278.518
277.722
276.887
276.024
275.147
274.271
273.412
281.432
281.391
281.309
281.185
281.017
280.804
280.545
280.237
279.879
279.472
279.014
278.507
277.953
277.356
276.723
276.061
275.379
274.687
273.998
273.324
279.715
279.681
279.614
279.512
279.374
279.2
278.988
278.738
278.448
278.119
277.751
277.344
276.902
276.428
275.927
275.404
274.866
274.323
273.782
273.254
278.323
278.295
278.24
278.157
278.045
277.904
277.732
277.53
277.297
277.033
276.738
276.415
276.064
275.688
275.293
274.881
274.46
274.034
273.611
273.198
277.199
277.177
277.133
277.065
276.975
276.861
276.723
276.561
276.375
276.164
275.93
275.673
275.396
275.101
274.79
274.467
274.138
273.806
273.476
273.154
276.298
276.28
276.244
276.19
276.117
276.026
275.916
275.787
275.639
275.472
275.287
275.085
274.867
274.635
274.392
274.14
273.884
273.625
273.369
273.12
275.577
275.563
275.534
275.491
275.434
275.361
275.274
275.172
275.054
274.923
274.778
274.619
274.449
274.268
274.079
273.883
273.684
273.484
273.286
273.093
275.005
274.993
274.971
274.936
274.891
274.834
274.765
274.684
274.592
274.489
274.376
274.252
274.119
273.979
273.832
273.681
273.527
273.373
273.22
273.071
274.552
274.543
274.525
274.498
274.462
274.417
274.363
274.3
274.229
274.148
274.06
273.964
273.861
273.753
273.64
273.523
273.405
273.286
273.169
273.055
274.195
274.188
274.174
274.153
274.125
274.09
274.048
273.999
273.944
273.882
273.813
273.739
273.66
273.577
273.49
273.4
273.31
273.219
273.129
273.042
273.916
273.911
273.9
273.884
273.862
273.835
273.802
273.765
273.722
273.674
273.621
273.564
273.504
273.44
273.373
273.305
273.236
273.167
273.098
273.032
273.699
273.695
273.686
273.674
273.657
273.636
273.611
273.582
273.549
273.512
273.472
273.429
273.382
273.334
273.283
273.231
273.179
273.126
273.075
273.024
273.531
273.527
273.521
273.511
273.498
273.482
273.463
273.441
273.416
273.388
273.357
273.324
273.289
273.252
273.214
273.175
273.135
273.095
273.056
273.018
273.401
273.398
273.393
273.386
273.376
273.364
273.349
273.333
273.313
273.292
273.269
273.244
273.218
273.19
273.161
273.131
273.101
273.072
273.042
273.014
273.301
273.299
273.296
273.29
273.283
273.273
273.262
273.25
273.235
273.219
273.202
273.183
273.163
273.142
273.12
273.098
273.076
273.054
273.032
273.01
273.225
273.224
273.221
273.217
273.211
273.204
273.196
273.186
273.176
273.164
273.15
273.136
273.121
273.106
273.09
273.073
273.057
273.04
273.024
273.008
273.168
273.167
273.164
273.161
273.157
273.152
273.146
273.139
273.13
273.121
273.112
273.101
273.09
273.079
273.067
273.054
273.042
273.03
273.017
273.006
273.124
273.123
273.122
273.119
273.116
273.112
273.108
273.102
273.096
273.09
273.083
273.075
273.067
273.058
273.049
273.04
273.031
273.022
273.013
273.004
273.092
273.091
273.09
273.088
273.086
273.083
273.079
273.075
273.071
273.066
273.061
273.055
273.049
273.043
273.036
273.029
273.023
273.016
273.009
273.003
273.067
273.067
273.066
273.065
273.063
273.061
273.058
273.055
273.052
273.048
273.045
273.04
273.036
273.031
273.026
273.022
273.017
273.012
273.007
273.002
273.049
273.049
273.048
273.047
273.046
273.045
273.043
273.041
273.038
273.035
273.033
273.03
273.026
273.023
273.019
273.016
273.012
273.009
273.005
273.002
273.036
273.036
273.035
273.035
273.034
273.033
273.031
273.03
273.028
273.026
273.024
273.022
273.019
273.017
273.014
273.012
273.009
273.006
273.004
273.001
273.027
273.026
273.026
273.026
273.025
273.024
273.023
273.022
273.021
273.019
273.018
273.016
273.014
273.012
273.01
273.008
273.007
273.005
273.003
273.001
273.02
273.02
273.019
273.019
273.019
273.018
273.017
273.016
273.015
273.014
273.013
273.012
273.011
273.009
273.008
273.006
273.005
273.003
273.002
273.001
273.015
273.015
273.015
273.015
273.014
273.014
273.013
273.013
273.012
273.011
273.01
273.009
273.008
273.007
273.006
273.005
273.004
273.003
273.002
273.001
273.012
273.012
273.012
273.012
273.012
273.011
273.011
273.01
273.01
273.009
273.008
273.007
273.007
273.006
273.005
273.004
273.003
273.002
273.001
273
273.011
273.011
273.011
273.011
273.01
273.01
273.01
273.009
273.009
273.008
273.007
273.007
273.006
273.005
273.004
273.004
273.003
273.002
273.001
273
)
;

boundaryField
{
    topWall
    {
        type            zeroGradient;
    }
    bottomWall
    {
        type            codedFixedValue;
        value           uniform 573;
        name            heating;
        code            #{
            const scalar t = this->db().time().value();
            const scalar Ttemp = 273 + 10*t;
            operator==(Ttemp);
        #};
    }
    sideWallL
    {
        type            symmetry;
    }
    sideWallR
    {
        type            fixedValue;
        value           uniform 273;
    }
    frontAndBack
    {
        type            empty;
    }
}


// ************************************************************************* //
