/*--------------------------------*- C++ -*----------------------------------*\
  =========                 |
  \\      /  F ield         | OpenFOAM: The Open Source CFD Toolbox
   \\    /   O peration     | Website:  https://openfoam.org
    \\  /    A nd           | Version:  7
     \\/     M anipulation  |
\*---------------------------------------------------------------------------*/
FoamFile
{
    version     2.0;
    format      ascii;
    class       volScalarField;
    location    "32";
    object      gradTx;
}
// * * * * * * * * * * * * * * * * * * * * * * * * * * * * * * * * * * * * * //

dimensions      [0 -1 0 1 0 0 0];

internalField   nonuniform List<scalar> 
900
(
-55.7815
-170.753
-296.258
-440.381
-612.975
-826.762
-1098.95
-1453.77
-1926.57
-2571.03
-3472.18
-4771.96
-6723.62
-9819.87
-15132.9
-25335.3
-48148.8
-109186
-301075
-945666
-159.73
-488.851
-847.802
-1259.42
-1751.4
-2359.36
-3131.08
-4133.28
-5462.27
-7261.92
-9755.15
-13301.8
-18510.5
-26467.6
-39226.7
-60888.2
-99916
-173209
-307173
-499457
-252.216
-771.549
-1336.82
-1982.98
-2752.07
-3697.46
-4889.84
-6426.12
-8443.19
-11139.8
-14812.7
-19916.7
-27168.2
-37721.5
-53459.2
-77412.3
-114104
-168691
-240923
-305287
-330.311
-1009.74
-1747.04
-2585.82
-3577.85
-4787.73
-6299.23
-8224.23
-10715.9
-13987.9
-18343.6
-24217.9
-32238.7
-43302.8
-58647.1
-79816.1
-108247
-143810
-181253
-204842
-390.95
-1194.06
-2062.27
-3044.06
-4196.03
-5587.29
-7305.12
-9462.4
-12207.8
-15738.8
-20319.6
-26300.5
-34137.4
-44394.5
-57695.4
-74542.5
-94856.4
-117051
-136678
-145774
-433.214
-1321.8
-2278.22
-3352.28
-4601.07
-6092.52
-7909.81
-10156.6
-12963.2
-16493.9
-20952.7
-26586.9
-33679.5
-42516.7
-53306.3
-66005.1
-80012.9
-93743.9
-104279
-107728
-457.587
-1394.62
-2398.37
-3517.09
-4804.93
-6324.55
-8150.02
-10369.9
-13089.9
-16434.9
-20547.8
-25582.5
-31685.5
-38955.9
-47372.4
-56674.8
-66202.6
-74741.4
-80522.2
-81622.6
-465.614
-1417.44
-2431.9
-3553.63
-4831.53
-6320.54
-8083.14
-10190.6
-12723.2
-15768.8
-19417.8
-23752.5
-28827
-34632.7
-41046.9
-47764.4
-54226.4
-59589.6
-62806.7
-62900
-459.571
-1397.39
-2391.8
-3482.47
-4711.87
-6126.15
-7775.7
-9715.04
-12001.5
-14692.2
-17837.7
-21471.2
-25591.6
-30138.6
-34960.8
-39781.4
-44174.7
-47578.6
-49373.2
-49044.5
-442.142
-1342.8
-2292.94
-3326.66
-4479.58
-5789.15
-7294.4
-9035.16
-11050
-13372.6
-16025.9
-19012.8
-22303.7
-25820.4
-29418.1
-32871.7
-35872.6
-38052.1
-39039.5
-38556
-416.124
-1262.33
-2150.55
-3109.28
-4167.54
-5354.74
-6700.11
-8231.43
-9972.92
-11941.8
-14143.2
-16563.6
-19161.8
-21859.7
-24533.6
-27009.8
-29070.6
-30474.7
-30997.5
-30483.4
-384.194
-1164.17
-1978.93
-2851.67
-3805.4
-4862.62
-6044.46
-7369.42
-8851.35
-10496.6
-12300.1
-14240.6
-16275.3
-18334.7
-20318.7
-22097.9
-23520.2
-24427.7
-24681.8
-24193.7
-348.754
-1055.67
-1790.71
-2572.32
-3418.37
-4345.57
-5368.71
-6499.43
-7744.52
-9103.62
-10566.5
-12110
-13694.3
-15261.4
-16733.3
-18015
-19001.1
-19587.3
-19687
-19248.7
-311.832
-942.963
-1596.36
-2286.4
-3026.59
-3829.08
-4703.86
-5657.7
-6692.8
-7805.15
-8982.56
-10202.7
-11431.4
-12621.7
-13714.3
-14640.2
-15326.2
-15703.2
-15716.3
-15335.2
-275.049
-830.961
-1404.15
-2005.59
-2645.3
-3331.87
-4071.77
-4868.46
-5721.41
-6624.85
-7566.54
-8526.62
-9476.75
-10380
-11191.8
-11862.3
-12340.9
-12581.1
-12548
-12223.4
-239.629
-723.327
-1220.18
-1738.4
-2285.25
-2866.67
-3486.59
-4146.35
-4843.89
-5572.95
-6322.25
-7074.88
-7807.99
-8493.03
-9096.84
-9583.62
-9917.99
-10068.8
-10013.4
-9740.95
-206.429
-622.616
-1048.64
-1490.5
-1953.4
-2441.26
-2956.31
-3498.57
-4065.29
-4650.39
-5244.02
-5832.23
-6396.94
-6916.37
-7365.97
-7720.04
-7953.87
-8046.37
-7982.7
-7756.55
-175.994
-530.432
-892.081
-1265.27
-1653.59
-2059.56
-2484.26
-2926.95
-3384.69
-3852
-4320.54
-4779.05
-5213.45
-5607.24
-5942.34
-6200.3
-6363.82
-6418.51
-6354.65
-6168.55
-148.612
-447.606
-751.788
-1064.21
-1387.28
-1722.53
-2070.32
-2429.52
-2797.31
-3168.92
-3537.49
-3894.07
-4227.81
-4526.3
-4776.27
-4964.45
-5078.69
-5109.16
-5049.44
-4897.42
-124.373
-374.372
-628.026
-887.432
-1154.17
-1429.07
-1712.06
-2001.87
-2295.96
-2590.29
-2879.32
-3156.05
-3412.14
-3638.34
-3824.91
-3962.31
-4042.01
-4057.22
-4003.71
-3880.34
-103.218
-310.523
-520.345
-734.085
-952.723
-1176.66
-1405.54
-1638.15
-1872.23
-2104.48
-2330.48
-2544.77
-2741.05
-2912.4
-3051.7
-3152.09
-3207.55
-3213.4
-3166.85
-3067.31
-84.988
-255.549
-427.798
-602.638
-780.638
-961.912
-1146
-1331.75
-1517.27
-1699.87
-1876.07
-2041.68
-2191.92
-2321.65
-2425.67
-2499.04
-2537.52
-2537.86
-2498.21
-2418.33
-69.4552
-208.748
-349.135
-491.172
-635.153
-781.02
-928.271
-1075.89
-1222.31
-1365.38
-1502.37
-1630.08
-1744.91
-1843.06
-1920.72
-1974.36
-2000.94
-1998.24
-1965.04
-1901.27
-56.3575
-169.313
-282.947
-397.577
-513.32
-630.023
-747.197
-863.971
-979.06
-1090.76
-1196.96
-1295.23
-1382.86
-1457.04
-1515.01
-1554.2
-1572.49
-1568.32
-1540.88
-1490.23
-45.4183
-136.397
-227.77
-319.697
-412.186
-505.039
-597.807
-689.757
-779.854
-866.759
-948.855
-1024.29
-1091.05
-1147.06
-1190.3
-1218.93
-1231.44
-1226.75
-1204.34
-1164.29
-36.3624
-109.164
-182.171
-255.442
-328.921
-402.399
-475.479
-547.557
-617.806
-685.186
-748.457
-806.223
-856.985
-899.214
-931.44
-952.341
-960.843
-956.202
-938.075
-906.568
-28.9277
-86.8172
-144.791
-202.846
-260.894
-318.733
-376.023
-432.27
-486.825
-538.88
-587.494
-631.617
-670.134
-701.925
-725.917
-741.162
-746.898
-742.609
-728.076
-703.403
-22.8717
-68.6228
-114.384
-160.117
-205.722
-251.014
-295.708
-339.408
-381.603
-421.675
-458.909
-492.518
-521.68
-545.569
-563.409
-574.517
-578.353
-574.561
-563.002
-543.772
-17.9753
-53.9182
-89.8282
-125.651
-161.287
-196.573
-231.274
-265.074
-297.578
-328.311
-356.736
-382.264
-404.289
-422.205
-435.45
-443.534
-446.074
-442.824
-433.697
-418.779
-14.0445
-42.1179
-70.1369
-98.042
-125.739
-153.09
-179.904
-205.932
-230.867
-254.351
-275.977
-295.31
-311.9
-325.308
-335.125
-341
-342.662
-339.941
-332.784
-321.264
-10.9106
-32.7126
-54.4524
-76.071
-97.4854
-118.58
-139.201
-159.154
-178.205
-196.08
-212.476
-227.071
-239.535
-249.545
-256.807
-261.07
-262.142
-259.906
-254.33
-245.476
-8.4284
-25.2657
-42.0406
-58.6993
-75.1702
-91.3584
-107.142
-122.37
-136.864
-150.418
-162.805
-173.787
-183.123
-190.578
-195.939
-199.027
-199.706
-197.896
-193.58
-186.806
-6.47515
-19.4071
-32.2813
-45.0503
-57.6541
-70.0161
-82.0405
-93.611
-104.591
-114.828
-124.152
-132.389
-139.36
-144.897
-148.846
-151.078
-151.499
-150.053
-146.732
-141.574
-4.94784
-14.8272
-24.6555
-34.3924
-43.9886
-53.3829
-62.5008
-71.2531
-79.5371
-87.2376
-94.2304
-100.386
-105.576
-109.677
-112.578
-114.189
-114.442
-113.3
-110.759
-106.85
-3.7611
-11.2692
-18.7338
-26.1213
-33.3918
-40.4971
-47.3795
-53.9712
-60.1949
-65.965
-71.1898
-75.7747
-79.6259
-82.6545
-84.7813
-85.9412
-86.0873
-85.1941
-83.2605
-80.3104
-2.84485
-8.5228
-14.1645
-19.7426
-25.2253
-30.5749
-35.7471
-40.6907
-45.3478
-49.655
-53.5448
-56.9482
-59.797
-62.0273
-63.5824
-64.4159
-64.495
-63.8026
-62.3389
-60.1225
-2.14211
-6.41669
-10.6617
-14.8552
-18.972
-22.9831
-26.8546
-30.5479
-34.0199
-37.2237
-40.1101
-42.6285
-44.7298
-46.3679
-47.5023
-48.1001
-48.1384
-47.6057
-46.5029
-44.8444
-1.60698
-4.81317
-7.9956
-11.1368
-14.2173
-17.2145
-20.1029
-22.8535
-25.4342
-27.8107
-29.9467
-31.8056
-33.352
-34.5526
-35.3786
-35.8068
-35.8211
-35.4137
-34.586
-33.349
-1.20289
-3.60247
-5.98316
-8.33127
-10.6316
-12.8669
-15.0179
-17.0629
-18.9781
-20.7382
-22.3168
-23.6874
-24.8241
-25.7034
-26.3045
-26.6111
-26.6119
-26.3017
-25.682
-24.7609
-0.900994
-2.69808
-4.48025
-6.23677
-7.95588
-9.62444
-11.2278
-12.7497
-14.1727
-15.4779
-16.6462
-17.6581
-18.4951
-19.1402
-19.5785
-19.7984
-19.7921
-19.5561
-19.0918
-18.4055
-0.678894
-2.0328
-3.3749
-4.6968
-5.98936
-7.24249
-8.44505
-9.58484
-10.6487
-11.6229
-12.4931
-13.2451
-13.8656
-14.342
-14.6638
-14.8227
-14.8131
-14.6327
-14.2828
-13.7682
-0.519496
-1.55538
-2.58183
-3.59218
-4.57923
-5.53515
-6.45133
-7.31845
-8.12656
-8.86523
-9.52381
-10.0918
-10.5592
-10.9168
-11.1569
-11.2736
-11.2628
-11.1229
-10.8552
-10.4631
-0.410148
-1.22789
-2.03789
-2.83471
-3.61254
-4.36508
-5.08549
-5.76644
-6.40012
-6.97842
-7.49312
-7.93613
-8.29978
-8.57715
-8.76237
-8.8509
-8.83987
-8.72819
-8.51678
-8.20857
-0.341942
-1.02363
-1.69866
-2.36239
-3.00988
-3.6358
-4.23442
-4.79964
-5.325
-5.80381
-6.22934
-6.595
-6.89456
-7.12242
-7.27387
-7.34528
-7.33439
-7.24041
-7.06415
-6.80809
-0.309215
-0.925623
-1.53591
-2.1358
-2.72079
-3.28602
-3.82631
-4.33611
-4.80963
-5.24086
-5.62378
-5.9525
-6.22148
-6.42575
-6.56114
-6.62445
-6.61371
-6.52827
-6.36888
-6.1378
)
;

boundaryField
{
    topWall
    {
        type            calculated;
        value           nonuniform List<scalar> 
20
(
-0.309215
-0.925623
-1.53591
-2.1358
-2.72079
-3.28602
-3.82631
-4.33611
-4.80963
-5.24086
-5.62378
-5.9525
-6.22148
-6.42575
-6.56114
-6.62445
-6.61371
-6.52827
-6.36888
-6.1378
)
;
    }
    bottomWall
    {
        type            calculated;
        value           nonuniform List<scalar> 
20
(
-55.7815
-170.753
-296.258
-440.381
-612.975
-826.762
-1098.95
-1453.77
-1926.57
-2571.03
-3472.18
-4771.96
-6723.62
-9819.87
-15132.9
-25335.3
-48148.8
-109186
-301075
-945666
)
;
    }
    sideWallL
    {
        type            symmetry;
    }
    sideWallR
    {
        type            calculated;
        value           nonuniform List<scalar> 
45
(
-1.4434e+06
-605787
-329809
-210368
-146480
-107164
-80774.1
-62059.9
-48298.2
-37920.8
-29953.8
-23757.1
-18891.4
-15044.2
-11987.3
-9550.03
-7602.66
-6044.9
-4798.38
-3801.25
-3004.37
-2368.41
-1861.81
-1459.15
-1139.91
-887.511
-688.567
-532.266
-409.893
-314.431
-240.243
-182.816
-138.544
-104.559
-78.5859
-58.8296
-43.8788
-32.6301
-24.2266
-18.0079
-13.4704
-10.2367
-8.03077
-6.66052
-6.00471
)
;
    }
    frontAndBack
    {
        type            empty;
    }
}


// ************************************************************************* //
