/*--------------------------------*- C++ -*----------------------------------*\
  =========                 |
  \\      /  F ield         | OpenFOAM: The Open Source CFD Toolbox
   \\    /   O peration     | Website:  https://openfoam.org
    \\  /    A nd           | Version:  7
     \\/     M anipulation  |
\*---------------------------------------------------------------------------*/
FoamFile
{
    version     2.0;
    format      ascii;
    class       volScalarField;
    location    "32";
    object      gradTy;
}
// * * * * * * * * * * * * * * * * * * * * * * * * * * * * * * * * * * * * * //

dimensions      [0 -1 0 1 0 0 0];

internalField   nonuniform List<scalar> 
900
(
-223228
-223443
-223887
-224587
-225587
-226952
-228773
-231182
-234360
-238571
-244193
-251798
-262267
-277032
-298554
-331392
-384778
-479456
-667173
-1.0877e+06
-188799
-188995
-189399
-190036
-190942
-192175
-193813
-195966
-198785
-202482
-207354
-213823
-222499
-234267
-250400
-272594
-302477
-338549
-361982
-278397
-163388
-163558
-163909
-164458
-165235
-166284
-167663
-169452
-171754
-174706
-178480
-183294
-189397
-197022
-206232
-216443
-225160
-224774
-195760
-98854.6
-144125
-144264
-144548
-144989
-145609
-146433
-147498
-148848
-150535
-152613
-155134
-158120
-161518
-165089
-168191
-169325
-165321
-150077
-113680
-45832.4
-126785
-126888
-127097
-127419
-127864
-128442
-129168
-130053
-131101
-132300
-133607
-134909
-135976
-136350
-135190
-131010
-121379
-102775
-71312.5
-25801
-111044
-111111
-111245
-111447
-111718
-112056
-112455
-112901
-113363
-113783
-114059
-114011
-113341
-111559
-107902
-101236
-90034.2
-72582.2
-47725
-16426.4
-96831.8
-96864.2
-96927.4
-97017.8
-97128.7
-97248.3
-97356.8
-97421.6
-97390.8
-97181.6
-96665.7
-95646.8
-93831.3
-90794.3
-85947.3
-78534.9
-67706.6
-52748.3
-33552.3
-11276.1
-84071.7
-84073.7
-84074.5
-84067.1
-84039.9
-83974.1
-83841.5
-83599.8
-83186.6
-82511.4
-81443.9
-79801.3
-77332.6
-73707.4
-68515.4
-61295.8
-51621.9
-39267.9
-24459.1
-8118.96
-72676
-72652.6
-72601.4
-72513.6
-72374.4
-72161.7
-71843
-71372.9
-70687.6
-69699.7
-68291.4
-66307.8
-63551.7
-59784.5
-54739.4
-48155.7
-39846.7
-29802
-18309.2
-6034.79
-62550.7
-62507.2
-62415.6
-62266
-62042.4
-61721.6
-61271
-60646
-59787.4
-58617.4
-57036.9
-54922.9
-52129.3
-48493.2
-43850.5
-38066
-31078.9
-22961.8
-13975
-4586.12
-53599.4
-53541.5
-53420.8
-53227.5
-52945.8
-52553.3
-52019.3
-51303.3
-50353.5
-49104.7
-47477.5
-45378.8
-42705.3
-39350.5
-35219.6
-30251
-24445.8
-17898.7
-10821.4
-3540.92
-45726.2
-45658.8
-45519.5
-45299
-44982.6
-44549.8
-43973.4
-43218.4
-42241.4
-40990
-39403.3
-37413.3
-34949.6
-31945.9
-28351.3
-24145.6
-19356.5
-14076.1
-8469.04
-2765.59
-38836.3
-38764
-38615.1
-38381.4
-38049.9
-37602.6
-37016.3
-36262
-35304.6
-34103.5
-32613.2
-30786
-28575.3
-25942.1
-22862.4
-19337.7
-15404.7
-11143.7
-6680.22
-2178.23
-32837.8
-32764.1
-32613.1
-32377.5
-32046.4
-31604.5
-31032.7
-30307.5
-29401.7
-28284.4
-26922.9
-25284.4
-23339.6
-21066.8
-18458.2
-15525.3
-12305.4
-8865.07
-5299.31
-1726.03
-27641.9
-27569.7
-27422.2
-27193.5
-26874.2
-26452.2
-25911.8
-25234.9
-24400.5
-23386
-22168.3
-20725.7
-19040.4
-17102.2
-14911.7
-12484.7
-9855.13
-7076.49
-4220.74
-1373.54
-23164.1
-23095.5
-22955.8
-22740
-22440.7
-22048.1
-21550.1
-20932.6
-20180.2
-19276.5
-18205.7
-16954
-15511.3
-13874.2
-12047.7
-10048.4
-7905.44
-5661.4
-3370.69
-1096.15
-19324.8
-19261.2
-19132
-18933.1
-18658.8
-18301.4
-17851.7
-17299.1
-16632.3
-15839.9
-14911.4
-13838.2
-12615.5
-11243.7
-9729.75
-8089.17
-6346.43
-4535
-2696.12
-876.281
-16049.6
-15991.8
-15874.6
-15695
-15448.3
-15128.9
-14729.6
-14242.9
-13660.5
-12974.9
-12179.1
-11268.3
-10240.9
-9099.22
-7850.86
-6509.51
-5095.26
-3634.33
-2158.05
-701.071
-13269.7
-13218
-13113.6
-12954
-12735.8
-12454.6
-12105.3
-11682.4
-11180.2
-10593.6
-9918.49
-9152.4
-8295.48
-7351.1
-6326.58
-5233.66
-4088.59
-2911.85
-1727.3
-560.912
-10921.8
-10876.4
-10784.7
-10645
-10454.6
-10210.4
-9908.73
-9545.65
-9117.36
-8620.57
-8052.92
-7413.56
-6703.62
-5926.8
-5089.72
-4202.23
-3277.37
-2331.09
-1381.61
-448.503
-8948.81
-8909.42
-8829.98
-8709.19
-8545.19
-8335.67
-8078.03
-7769.6
-7407.9
-6990.91
-6517.48
-5987.66
-5403.12
-4767.44
-4086.43
-3368.2
-2623.16
-1863.71
-1103.8
-358.211
-7299.01
-7265.25
-7197.24
-7094.04
-6954.32
-6776.47
-6558.69
-6299.2
-5996.43
-5649.28
-5257.33
-4821.17
-4342.64
-3825.03
-3273.3
-2694.06
-2095.56
-1487.45
-880.398
-285.638
-5926.3
-5897.67
-5840.07
-5752.82
-5635.01
-5485.5
-5303.12
-5086.7
-4835.34
-4548.5
-4226.23
-3869.38
-3479.77
-3060.32
-2615.17
-2149.67
-1670.33
-1184.64
-700.79
-227.314
-4789.78
-4765.75
-4717.43
-4644.38
-4545.96
-4421.41
-4269.98
-4090.95
-3883.84
-3648.49
-3385.22
-3094.97
-2779.43
-2441.11
-2083.43
-1710.69
-1328
-941.179
-556.504
-180.476
-3853.45
-3833.46
-3793.31
-3732.68
-3651.17
-3548.28
-3423.55
-3276.57
-3107.13
-2915.31
-2701.56
-2466.81
-2212.56
-1940.94
-1654.73
-1357.37
-1052.87
-745.72
-440.749
-142.911
-3085.86
-3069.37
-3036.28
-2986.39
-2919.43
-2835.1
-2733.13
-2613.32
-2475.64
-2320.29
-2147.76
-1958.93
-1755.09
-1538.01
-1309.96
-1073.64
-832.191
-589.098
-348.052
-112.836
-2459.71
-2446.22
-2419.17
-2378.43
-2323.84
-2255.23
-2172.46
-2075.46
-1964.31
-1839.26
-1700.8
-1549.71
-1387.09
-1214.41
-1033.45
-846.374
-655.625
-463.884
-273.985
-88.8112
-1951.46
-1940.51
-1918.56
-1885.54
-1841.37
-1785.94
-1719.21
-1641.19
-1552.01
-1451.94
-1341.44
-1221.18
-1092.09
-955.337
-812.369
-664.871
-514.741
-364.047
-214.956
-69.6683
-1540.96
-1532.13
-1514.45
-1487.89
-1452.38
-1407.9
-1354.46
-1292.1
-1220.98
-1141.36
-1053.66
-958.431
-856.447
-748.651
-636.186
-520.368
-402.669
-284.676
-168.048
-54.4589
-1211.06
-1203.99
-1189.85
-1168.62
-1140.27
-1104.81
-1062.28
-1012.74
-956.358
-893.369
-824.126
-749.109
-668.933
-584.355
-496.273
-405.712
-313.808
-221.779
-130.89
-42.4126
-947.246
-941.63
-930.394
-913.534
-891.051
-862.965
-829.319
-790.203
-745.758
-696.199
-641.825
-583.028
-520.303
-454.25
-385.572
-315.064
-243.599
-172.108
-101.554
-32.9038
-737.337
-732.902
-724.032
-710.731
-693.011
-670.9
-644.447
-613.739
-578.904
-540.126
-497.652
-451.802
-402.97
-351.627
-298.322
-243.666
-188.33
-133.023
-78.4777
-25.4248
-571.146
-567.665
-560.708
-550.28
-536.401
-519.099
-498.425
-474.457
-447.308
-417.13
-384.128
-348.556
-310.727
-271.009
-229.826
-187.648
-144.988
-102.385
-60.3927
-19.5642
-440.215
-437.501
-432.077
-423.953
-413.148
-399.691
-383.629
-365.03
-343.989
-320.634
-295.126
-267.671
-238.513
-207.937
-176.27
-143.873
-111.133
-78.4609
-46.274
-14.9895
-337.56
-335.457
-331.256
-324.966
-316.606
-306.203
-293.798
-279.45
-263.236
-245.26
-225.653
-204.575
-182.215
-158.796
-134.566
-109.8
-84.7926
-59.8525
-35.2947
-11.4322
-257.449
-255.83
-252.596
-247.758
-241.33
-233.338
-223.816
-212.813
-200.393
-186.638
-171.652
-155.558
-138.505
-120.662
-102.219
-83.3832
-64.3778
-45.4344
-26.7893
-8.67677
-195.196
-193.958
-191.487
-187.79
-182.881
-176.782
-169.521
-161.137
-151.683
-141.224
-129.839
-117.626
-104.696
-91.1805
-77.2216
-62.9767
-48.6125
-34.3027
-20.2236
-6.54989
-146.994
-146.055
-144.18
-141.376
-137.656
-133.036
-127.54
-121.199
-114.055
-106.157
-97.569
-88.3639
-78.6279
-68.4583
-57.9634
-47.2605
-36.4743
-25.734
-15.1704
-4.91305
-109.756
-109.05
-107.641
-105.534
-102.741
-99.2729
-95.1504
-90.3978
-85.0467
-79.1362
-72.7139
-65.8358
-58.5664
-50.9789
-43.1539
-35.1787
-27.1455
-19.1498
-11.288
-3.65556
-80.9867
-80.4627
-79.417
-77.8544
-75.7825
-73.2122
-70.1581
-66.6393
-62.6801
-58.31
-53.5648
-48.4863
-43.1226
-37.5277
-31.7611
-25.887
-19.9727
-14.0882
-8.30376
-2.68904
-58.6677
-58.2862
-57.525
-56.3878
-54.8805
-53.0112
-50.7912
-48.2347
-45.3599
-42.1886
-38.7472
-35.0663
-31.1809
-27.1303
-22.9575
-18.7088
-14.4327
-10.1794
-5.99953
-1.94279
-41.1571
-40.8884
-40.3522
-39.5513
-38.4901
-37.1745
-35.6127
-33.815
-31.7943
-29.5664
-27.1498
-24.5664
-21.8408
-19.0006
-16.076
-13.0992
-10.1042
-7.12598
-4.19966
-1.35992
-27.1041
-26.9266
-26.5724
-26.0434
-25.3426
-24.474
-23.4432
-22.2571
-20.9244
-19.4556
-17.863
-16.1611
-14.3662
-12.4965
-10.5718
-8.61344
-6.64355
-4.68507
-2.76101
-0.894042
-15.3738
-15.2728
-15.0715
-14.7709
-14.3726
-13.8791
-13.2935
-12.6199
-11.8632
-11.0294
-10.1257
-9.16009
-8.14203
-7.08179
-5.99063
-4.88056
-3.76418
-2.65441
-1.56426
-0.506515
-4.97932
-4.9466
-4.88132
-4.78384
-4.65473
-4.49475
-4.30495
-4.08663
-3.84142
-3.57127
-3.27848
-2.96571
-2.63598
-2.29263
-1.93931
-1.5799
-1.21848
-0.859224
-0.506338
-0.163954
)
;

boundaryField
{
    topWall
    {
        type            calculated;
        value           uniform 0;
    }
    bottomWall
    {
        type            calculated;
        value           nonuniform List<scalar> 
20
(
-242430
-242653
-243113
-243838
-244875
-246290
-248182
-250686
-253997
-258392
-264281
-272281
-283369
-299175
-322648
-359707
-423989
-552302
-860734
-1.7566e+06
)
;
    }
    sideWallL
    {
        type            symmetry;
    }
    sideWallR
    {
        type            calculated;
        value           nonuniform List<scalar> 
45
(
-1.0877e+06
-278397
-98854.6
-45832.4
-25801
-16426.4
-11276.1
-8118.96
-6034.79
-4586.12
-3540.92
-2765.59
-2178.23
-1726.03
-1373.54
-1096.15
-876.281
-701.071
-560.912
-448.503
-358.211
-285.638
-227.314
-180.476
-142.911
-112.836
-88.8112
-69.6683
-54.4589
-42.4126
-32.9038
-25.4248
-19.5642
-14.9895
-11.4322
-8.67677
-6.54989
-4.91305
-3.65556
-2.68904
-1.94279
-1.35992
-0.894042
-0.506515
-0.163954
)
;
    }
    frontAndBack
    {
        type            empty;
    }
}


// ************************************************************************* //
