/*--------------------------------*- C++ -*----------------------------------*\
  =========                 |
  \\      /  F ield         | OpenFOAM: The Open Source CFD Toolbox
   \\    /   O peration     | Website:  https://openfoam.org
    \\  /    A nd           | Version:  7
     \\/     M anipulation  |
\*---------------------------------------------------------------------------*/
FoamFile
{
    version     2.0;
    format      ascii;
    class       volScalarField;
    location    "32";
    object      rhoc;
}
// * * * * * * * * * * * * * * * * * * * * * * * * * * * * * * * * * * * * * //

dimensions      [1 -3 0 0 0 0 0];

internalField   nonuniform List<scalar> 
900
(
7.17614e-06
7.16139e-06
7.13103e-06
7.08331e-06
7.01542e-06
6.92336e-06
6.80161e-06
6.64282e-06
6.43727e-06
6.17237e-06
5.83191e-06
5.39566e-06
4.83935e-06
4.13679e-06
3.26729e-06
2.23814e-06
1.14578e-06
2.87881e-07
8.03477e-09
1.6199e-14
8.9209e-08
8.86005e-08
8.73576e-08
8.54291e-08
8.27385e-08
7.91872e-08
7.46596e-08
6.9035e-08
6.22099e-08
5.41373e-08
4.48893e-08
3.47493e-08
2.432e-08
1.45937e-08
6.84252e-09
2.10443e-09
2.96381e-10
8.44546e-12
6.04292e-15
2.61278e-22
1.15482e-09
1.14064e-09
1.11192e-09
1.06805e-09
1.00824e-09
9.31789e-10
8.38423e-10
7.28846e-10
6.0546e-10
4.73181e-10
3.40094e-10
2.17328e-10
1.17233e-10
4.91579e-11
1.39776e-11
2.12689e-12
1.12605e-13
9.15339e-16
2.33897e-19
1.3246e-25
1.51449e-11
1.48701e-11
1.43196e-11
1.34928e-11
1.23939e-11
1.10374e-11
9.45611e-12
7.70986e-12
5.89271e-12
4.13343e-12
2.5818e-12
1.37454e-12
5.84673e-13
1.80153e-13
3.45429e-14
3.23979e-15
1.00998e-16
5.66943e-19
2.36417e-22
4.11686e-27
2.10345e-13
2.05301e-13
1.95294e-13
1.80529e-13
1.61405e-13
1.38617e-13
1.13256e-13
8.68753e-14
6.1435e-14
3.9061e-14
2.15669e-14
9.84923e-15
3.47214e-15
8.55846e-16
1.27872e-16
9.4286e-18
2.56966e-19
1.77822e-21
2.17465e-24
6.64952e-28
3.25337e-15
3.1577e-15
2.96978e-15
2.69715e-15
2.35256e-15
1.95527e-15
1.53168e-15
1.11426e-15
7.37929e-16
4.33124e-16
2.17329e-16
8.87942e-17
2.76568e-17
6.00838e-18
8.08512e-19
5.77711e-20
1.81956e-21
2.09883e-23
8.42583e-26
2.28456e-28
5.88309e-17
5.68283e-17
5.29293e-17
4.73563e-17
4.04622e-17
3.27377e-17
2.47956e-17
1.73124e-17
1.09196e-17
6.05926e-18
2.85769e-18
1.09539e-18
3.22197e-19
6.76252e-20
9.26528e-21
7.48088e-22
3.2173e-23
6.96313e-25
8.49201e-27
1.16412e-28
1.30066e-18
1.25177e-18
1.15727e-18
1.02383e-18
8.61583e-19
6.83827e-19
5.06068e-19
3.44017e-19
2.10711e-19
1.13472e-19
5.20956e-20
1.96263e-20
5.79219e-21
1.26804e-21
1.93873e-22
1.95195e-23
1.24423e-24
5.13197e-26
1.65313e-27
7.44224e-29
3.65497e-20
3.5093e-20
3.22923e-20
2.83719e-20
2.36627e-20
1.8582e-20
1.35922e-20
9.13383e-21
5.54168e-21
2.97143e-21
1.37213e-21
5.2926e-22
1.64696e-22
3.98289e-23
7.22124e-24
9.5658e-25
9.27589e-26
7.03454e-27
5.12696e-28
5.47156e-29
1.34731e-21
1.29239e-21
1.18714e-21
1.04057e-21
8.65694e-22
6.78513e-22
4.96193e-22
3.34476e-22
2.04765e-22
1.11854e-22
5.34152e-23
2.17969e-23
7.42019e-24
2.05989e-24
4.58514e-25
8.16379e-26
1.19533e-26
1.56878e-27
2.21828e-28
4.40368e-29
6.6685e-23
6.39954e-23
5.88463e-23
5.16873e-23
4.31595e-23
3.40393e-23
2.51476e-23
1.72269e-23
1.08113e-23
6.13074e-24
3.094e-24
1.36795e-24
5.22101e-25
1.70124e-25
4.71943e-26
1.12936e-26
2.42991e-27
5.12533e-28
1.21724e-28
3.76639e-29
4.49783e-24
4.32384e-24
3.99049e-24
3.52625e-24
2.97153e-24
2.37508e-24
1.78839e-24
1.2584e-24
8.19821e-25
4.89525e-25
2.6514e-25
1.29014e-25
5.599e-26
2.16242e-26
7.48379e-27
2.37244e-27
7.20251e-28
2.24992e-28
7.90655e-29
3.35968e-29
4.16339e-25
4.01361e-25
3.72592e-25
3.32351e-25
2.8393e-25
2.31317e-25
1.78774e-25
1.30275e-25
8.89179e-26
5.64599e-26
3.31436e-26
1.79036e-26
8.88623e-27
4.06854e-27
1.73979e-27
7.12001e-28
2.89857e-28
1.23456e-28
5.78706e-29
3.0874e-29
5.29262e-26
5.12107e-26
4.79037e-26
4.32475e-26
3.75885e-26
3.13512e-26
2.49977e-26
1.89738e-26
1.36504e-26
9.27148e-27
5.92794e-27
3.56462e-27
2.02074e-27
1.08779e-27
5.63794e-28
2.87438e-28
1.48288e-28
7.98533e-29
4.61017e-29
2.89868e-29
9.20319e-27
8.94368e-27
8.4411e-27
7.72776e-27
6.85028e-27
5.86672e-27
4.84186e-27
3.84078e-27
2.92128e-27
2.12673e-27
1.48121e-27
9.88345e-28
6.34508e-28
3.95021e-28
2.41362e-28
1.47054e-28
9.09835e-29
5.81895e-29
3.90147e-29
2.7645e-29
2.17064e-27
2.11944e-27
2.01979e-27
1.87709e-27
1.69923e-27
1.49624e-27
1.27963e-27
1.06145e-27
8.53117e-28
6.64174e-28
5.01281e-28
3.67666e-28
2.63213e-28
1.85154e-28
1.29113e-28
9.0193e-29
6.3815e-29
4.61964e-29
3.44851e-29
2.66728e-29
6.8376e-28
6.70833e-28
6.45537e-28
6.08983e-28
5.62819e-28
5.09182e-28
4.50597e-28
3.89821e-28
3.29625e-28
2.72543e-28
2.2063e-28
1.75279e-28
1.37148e-28
1.06207e-28
8.18819e-29
6.32635e-29
4.93088e-29
3.90033e-29
3.14598e-29
2.59585e-29
2.80112e-28
2.76035e-28
2.68017e-28
2.56332e-28
2.41391e-28
2.23743e-28
2.04053e-28
1.83078e-28
1.61621e-28
1.40472e-28
1.20345e-28
1.01815e-28
8.52845e-29
7.09614e-29
5.88744e-29
4.89071e-29
4.08455e-29
3.44253e-29
2.93719e-29
2.54283e-29
1.43581e-28
1.42022e-28
1.38944e-28
1.34423e-28
1.28582e-28
1.21582e-28
1.1363e-28
1.04968e-28
9.58646e-29
8.66032e-29
7.74595e-29
6.86838e-29
6.04831e-29
5.30088e-29
4.63516e-29
4.05446e-29
3.55716e-29
3.13803e-29
2.78956e-29
2.50319e-29
8.80109e-29
8.73122e-29
8.5927e-29
8.38807e-29
8.1213e-29
7.79792e-29
7.42511e-29
7.01169e-29
6.5679e-29
6.10501e-29
5.63481e-29
5.16886e-29
4.71779e-29
4.29067e-29
3.89453e-29
3.53414e-29
3.21203e-29
2.92876e-29
2.68328e-29
2.4734e-29
6.17526e-29
6.13969e-29
6.06898e-29
5.96403e-29
5.82627e-29
5.65777e-29
5.46132e-29
5.24046e-29
4.99949e-29
4.74337e-29
4.47756e-29
4.20775e-29
3.93957e-29
3.6783e-29
3.42857e-29
3.19414e-29
2.97782e-29
2.7814e-29
2.60574e-29
2.45092e-29
4.78151e-29
4.76153e-29
4.72174e-29
4.66246e-29
4.58427e-29
4.48798e-29
4.37477e-29
4.24619e-29
4.10421e-29
3.95118e-29
3.78982e-29
3.62309e-29
3.45411e-29
3.28598e-29
3.12166e-29
2.96376e-29
2.81454e-29
2.67575e-29
2.54863e-29
2.43394e-29
3.97332e-29
3.96124e-29
3.93713e-29
3.90112e-29
3.85344e-29
3.79445e-29
3.72467e-29
3.64483e-29
3.5559e-29
3.45906e-29
3.35576e-29
3.24763e-29
3.13646e-29
3.02414e-29
2.91252e-29
2.80341e-29
2.69844e-29
2.599e-29
2.50627e-29
2.4211e-29
3.47257e-29
3.46484e-29
3.4494e-29
3.4263e-29
3.39564e-29
3.35758e-29
3.31236e-29
3.26035e-29
3.20205e-29
3.13811e-29
3.06932e-29
2.99665e-29
2.92116e-29
2.84401e-29
2.76641e-29
2.68958e-29
2.61466e-29
2.54273e-29
2.47471e-29
2.41138e-29
3.14663e-29
3.14148e-29
3.13118e-29
3.11576e-29
3.09525e-29
3.06973e-29
3.03932e-29
3.00422e-29
2.9647e-29
2.92113e-29
2.87399e-29
2.82385e-29
2.77138e-29
2.71731e-29
2.66244e-29
2.60759e-29
2.55359e-29
2.5012e-29
2.45114e-29
2.40403e-29
2.92662e-29
2.92308e-29
2.916e-29
2.90539e-29
2.89127e-29
2.87367e-29
2.85266e-29
2.82835e-29
2.8009e-29
2.77054e-29
2.73754e-29
2.70228e-29
2.66519e-29
2.62674e-29
2.58747e-29
2.54794e-29
2.50873e-29
2.47041e-29
2.43349e-29
2.39848e-29
2.77408e-29
2.7716e-29
2.76663e-29
2.75917e-29
2.74925e-29
2.73686e-29
2.72206e-29
2.70491e-29
2.6855e-29
2.66398e-29
2.64054e-29
2.61541e-29
2.58887e-29
2.56124e-29
2.5329e-29
2.50423e-29
2.47563e-29
2.44752e-29
2.42029e-29
2.39429e-29
2.66626e-29
2.66449e-29
2.66094e-29
2.65562e-29
2.64854e-29
2.6397e-29
2.62913e-29
2.61686e-29
2.60297e-29
2.58755e-29
2.57072e-29
2.55263e-29
2.53349e-29
2.5135e-29
2.49293e-29
2.47205e-29
2.45114e-29
2.4305e-29
2.41041e-29
2.39115e-29
2.58897e-29
2.5877e-29
2.58514e-29
2.58131e-29
2.5762e-29
2.56983e-29
2.5622e-29
2.55336e-29
2.54333e-29
2.53219e-29
2.52002e-29
2.50692e-29
2.49304e-29
2.47852e-29
2.46354e-29
2.44829e-29
2.43298e-29
2.41783e-29
2.40303e-29
2.38879e-29
2.53305e-29
2.53212e-29
2.53026e-29
2.52748e-29
2.52378e-29
2.51915e-29
2.51362e-29
2.5072e-29
2.49992e-29
2.49183e-29
2.48299e-29
2.47347e-29
2.46337e-29
2.4528e-29
2.44187e-29
2.43073e-29
2.41952e-29
2.4084e-29
2.39752e-29
2.38702e-29
2.49231e-29
2.49163e-29
2.49028e-29
2.48825e-29
2.48555e-29
2.48218e-29
2.47816e-29
2.47348e-29
2.46818e-29
2.4623e-29
2.45586e-29
2.44893e-29
2.44157e-29
2.43386e-29
2.42589e-29
2.41775e-29
2.40955e-29
2.40141e-29
2.39342e-29
2.3857e-29
2.46252e-29
2.46203e-29
2.46104e-29
2.45956e-29
2.45759e-29
2.45513e-29
2.45219e-29
2.44878e-29
2.44492e-29
2.44063e-29
2.43594e-29
2.43089e-29
2.42553e-29
2.41991e-29
2.4141e-29
2.40816e-29
2.40218e-29
2.39622e-29
2.39038e-29
2.38472e-29
2.4407e-29
2.44034e-29
2.43962e-29
2.43854e-29
2.4371e-29
2.4353e-29
2.43316e-29
2.43067e-29
2.42786e-29
2.42473e-29
2.42132e-29
2.41764e-29
2.41374e-29
2.40965e-29
2.40542e-29
2.40109e-29
2.39673e-29
2.39239e-29
2.38813e-29
2.384e-29
2.42471e-29
2.42444e-29
2.42392e-29
2.42313e-29
2.42208e-29
2.42077e-29
2.41921e-29
2.4174e-29
2.41535e-29
2.41307e-29
2.41059e-29
2.40792e-29
2.40508e-29
2.40211e-29
2.39903e-29
2.39589e-29
2.39272e-29
2.38957e-29
2.38647e-29
2.38346e-29
2.41299e-29
2.4128e-29
2.41242e-29
2.41184e-29
2.41108e-29
2.41012e-29
2.40899e-29
2.40767e-29
2.40618e-29
2.40453e-29
2.40273e-29
2.40079e-29
2.39873e-29
2.39658e-29
2.39435e-29
2.39208e-29
2.38978e-29
2.38749e-29
2.38525e-29
2.38306e-29
2.40443e-29
2.40429e-29
2.40401e-29
2.40359e-29
2.40304e-29
2.40235e-29
2.40152e-29
2.40057e-29
2.39949e-29
2.39829e-29
2.39699e-29
2.39558e-29
2.3941e-29
2.39254e-29
2.39093e-29
2.38929e-29
2.38763e-29
2.38598e-29
2.38435e-29
2.38277e-29
2.39819e-29
2.39809e-29
2.39789e-29
2.39758e-29
2.39718e-29
2.39668e-29
2.39608e-29
2.39539e-29
2.39461e-29
2.39374e-29
2.3928e-29
2.39179e-29
2.39072e-29
2.3896e-29
2.38844e-29
2.38725e-29
2.38606e-29
2.38487e-29
2.3837e-29
2.38256e-29
2.39366e-29
2.39358e-29
2.39344e-29
2.39322e-29
2.39293e-29
2.39256e-29
2.39213e-29
2.39163e-29
2.39107e-29
2.39045e-29
2.38977e-29
2.38904e-29
2.38827e-29
2.38746e-29
2.38663e-29
2.38578e-29
2.38492e-29
2.38407e-29
2.38323e-29
2.38241e-29
2.39038e-29
2.39033e-29
2.39022e-29
2.39006e-29
2.38985e-29
2.38959e-29
2.38928e-29
2.38892e-29
2.38852e-29
2.38807e-29
2.38758e-29
2.38706e-29
2.3865e-29
2.38592e-29
2.38532e-29
2.38471e-29
2.3841e-29
2.38349e-29
2.38288e-29
2.3823e-29
2.38803e-29
2.38799e-29
2.38792e-29
2.3878e-29
2.38765e-29
2.38746e-29
2.38724e-29
2.38698e-29
2.38668e-29
2.38636e-29
2.38601e-29
2.38563e-29
2.38524e-29
2.38482e-29
2.38439e-29
2.38395e-29
2.38351e-29
2.38307e-29
2.38264e-29
2.38222e-29
2.38637e-29
2.38634e-29
2.38628e-29
2.3862e-29
2.38609e-29
2.38595e-29
2.38579e-29
2.3856e-29
2.38539e-29
2.38515e-29
2.3849e-29
2.38463e-29
2.38434e-29
2.38404e-29
2.38373e-29
2.38341e-29
2.3831e-29
2.38278e-29
2.38247e-29
2.38217e-29
2.38521e-29
2.38519e-29
2.38515e-29
2.38509e-29
2.385e-29
2.3849e-29
2.38478e-29
2.38464e-29
2.38449e-29
2.38432e-29
2.38413e-29
2.38393e-29
2.38372e-29
2.3835e-29
2.38327e-29
2.38304e-29
2.38281e-29
2.38258e-29
2.38235e-29
2.38213e-29
2.38444e-29
2.38442e-29
2.38439e-29
2.38434e-29
2.38428e-29
2.3842e-29
2.38411e-29
2.38401e-29
2.38389e-29
2.38376e-29
2.38362e-29
2.38346e-29
2.3833e-29
2.38314e-29
2.38297e-29
2.38279e-29
2.38262e-29
2.38244e-29
2.38227e-29
2.3821e-29
2.38396e-29
2.38395e-29
2.38393e-29
2.38389e-29
2.38384e-29
2.38378e-29
2.3837e-29
2.38362e-29
2.38352e-29
2.38342e-29
2.3833e-29
2.38318e-29
2.38305e-29
2.38292e-29
2.38278e-29
2.38264e-29
2.3825e-29
2.38236e-29
2.38222e-29
2.38208e-29
2.38374e-29
2.38373e-29
2.38371e-29
2.38367e-29
2.38363e-29
2.38357e-29
2.38351e-29
2.38343e-29
2.38335e-29
2.38326e-29
2.38315e-29
2.38305e-29
2.38293e-29
2.38281e-29
2.38269e-29
2.38257e-29
2.38244e-29
2.38232e-29
2.3822e-29
2.38208e-29
)
;

boundaryField
{
    topWall
    {
        type            zeroGradient;
    }
    bottomWall
    {
        type            zeroGradient;
    }
    sideWallL
    {
        type            symmetry;
    }
    sideWallR
    {
        type            zeroGradient;
    }
    frontAndBack
    {
        type            empty;
    }
}


// ************************************************************************* //
