/*--------------------------------*- C++ -*----------------------------------*\
  =========                 |
  \\      /  F ield         | OpenFOAM: The Open Source CFD Toolbox
   \\    /   O peration     | Website:  https://openfoam.org
    \\  /    A nd           | Version:  7
     \\/     M anipulation  |
\*---------------------------------------------------------------------------*/
FoamFile
{
    version     2.0;
    format      ascii;
    class       volScalarField;
    location    "32";
    object      rhog;
}
// * * * * * * * * * * * * * * * * * * * * * * * * * * * * * * * * * * * * * //

dimensions      [1 -3 0 0 0 0 0];

internalField   nonuniform List<scalar> 
900
(
0.0868789
0.0867634
0.0865257
0.0861513
0.0856176
0.0848915
0.0839271
0.0826616
0.0810102
0.0788582
0.0760503
0.072376
0.06755
0.0611885
0.0527901
0.0417689
0.0277714
0.0121785
0.00150832
7.24948e-07
0.00617423
0.00614941
0.00609851
0.00601896
0.00590679
0.0057565
0.00556093
0.00531123
0.00499694
0.00460652
0.00412875
0.0035556
0.00288796
0.00214559
0.00138188
0.000697229
0.000223648
2.82751e-05
4.09341e-07
1.75379e-11
0.000499248
0.000495661
0.000488343
0.000477012
0.000461251
0.000440532
0.00041425
0.000381802
0.000342726
0.000296926
0.000245026
0.000188841
0.000131883
7.95437e-05
3.82526e-05
1.27641e-05
2.29176e-06
1.35971e-07
1.02092e-09
1.81783e-13
4.07274e-05
4.02933e-05
3.94133e-05
3.80652e-05
3.62196e-05
3.38454e-05
3.09194e-05
2.74408e-05
2.34514e-05
1.90619e-05
1.44783e-05
1.0016e-05
6.07576e-06
3.05061e-06
1.15894e-06
2.88751e-07
3.74384e-08
1.74256e-09
1.68121e-11
2.1826e-14
3.39752e-06
3.34936e-06
3.25238e-06
3.10548e-06
2.90765e-06
2.65885e-06
2.36118e-06
2.02055e-06
1.64843e-06
1.26337e-06
8.91186e-07
5.62207e-07
3.04488e-07
1.33497e-07
4.35103e-08
9.31761e-09
1.10015e-09
5.67925e-11
1.01063e-12
7.06069e-15
2.98237e-07
2.93023e-07
2.82592e-07
2.66966e-07
2.46259e-07
2.20777e-07
1.91135e-07
1.58402e-07
1.24192e-07
9.06694e-08
6.03355e-08
3.55519e-08
1.78351e-08
7.22257e-09
2.19814e-09
4.57852e-10
5.81834e-11
4.00511e-12
1.419e-13
3.61532e-15
2.83739e-08
2.77966e-08
2.66484e-08
2.49458e-08
2.27224e-08
2.00388e-08
1.69936e-08
1.37321e-08
1.04473e-08
7.36612e-09
4.71528e-09
2.66803e-09
1.28913e-09
5.09057e-10
1.55617e-10
3.45736e-11
5.23424e-12
5.1764e-13
3.50698e-14
2.36008e-15
3.00816e-09
2.94023e-09
2.80583e-09
2.60824e-09
2.35336e-09
2.05063e-09
1.71389e-09
1.36174e-09
1.01678e-09
7.03078e-10
4.41975e-10
2.4684e-10
1.19084e-10
4.80025e-11
1.55757e-11
3.91898e-12
7.4373e-13
1.06953e-13
1.28038e-14
1.77479e-15
3.64218e-10
3.55457e-10
3.3819e-10
3.12977e-10
2.80756e-10
2.42941e-10
2.01476e-10
1.58816e-10
1.17758e-10
8.10802e-11
5.10365e-11
2.88295e-11
1.43067e-11
6.09418e-12
2.17789e-12
6.41445e-13
1.55204e-13
3.18289e-14
6.16914e-15
1.4575e-15
5.13876e-11
5.01176e-11
4.76219e-11
4.39942e-11
3.9387e-11
3.40207e-11
2.81861e-11
2.22356e-11
1.65535e-11
1.15054e-11
7.37341e-12
4.29641e-12
2.24245e-12
1.03324e-12
4.15426e-13
1.45167e-13
4.46263e-14
1.26134e-14
3.6323e-15
1.2677e-15
8.57696e-12
8.36626e-12
7.95284e-12
7.35341e-12
6.59451e-12
5.7135e-12
4.75846e-12
3.7861e-12
2.85687e-12
2.02716e-12
1.34001e-12
8.17099e-13
4.55257e-13
2.29997e-13
1.05009e-13
4.35552e-14
1.67552e-14
6.26441e-15
2.47336e-15
1.14626e-15
1.71005e-12
1.66956e-12
1.59014e-12
1.47505e-12
1.32939e-12
1.16022e-12
9.7649e-13
7.88647e-13
6.07714e-13
4.43998e-13
3.05546e-13
1.96812e-13
1.18057e-13
6.5785e-14
3.4136e-14
1.66727e-14
7.84902e-15
3.7127e-15
1.87092e-15
1.06478e-15
4.09178e-13
4.00111e-13
3.82319e-13
3.56505e-13
3.23766e-13
2.85609e-13
2.43935e-13
2.0095e-13
1.59e-13
1.2031e-13
8.66968e-14
5.92968e-14
3.84275e-14
2.36247e-14
1.38607e-14
7.8617e-15
4.40742e-15
2.52117e-15
1.52656e-15
1.00818e-15
1.1755e-13
1.15184e-13
1.10534e-13
1.03772e-13
9.5163e-14
8.50707e-14
7.39547e-14
6.23514e-14
5.08383e-14
3.99784e-14
3.02551e-14
2.20098e-14
1.54015e-14
1.04025e-14
6.83164e-15
4.41662e-15
2.86089e-15
1.8971e-15
1.31534e-15
9.67862e-16
4.04296e-14
3.97131e-14
3.83027e-14
3.62447e-14
3.36112e-14
3.05013e-14
2.70411e-14
2.33792e-14
1.96787e-14
1.61037e-14
1.28028e-14
9.89228e-15
7.44346e-15
5.47758e-15
3.96994e-15
2.86214e-15
2.07828e-15
1.54025e-15
1.17875e-15
9.38596e-16
1.6556e-14
1.63064e-14
1.58141e-14
1.50929e-14
1.41648e-14
1.30599e-14
1.18171e-14
1.04829e-14
9.10926e-15
7.7505e-15
6.45818e-15
5.27633e-15
4.23697e-15
3.35748e-15
2.64036e-15
2.07541e-15
1.64371e-15
1.32203e-15
1.08685e-15
9.17055e-16
8.00256e-15
7.9037e-15
7.70821e-15
7.42074e-15
7.04857e-15
6.60191e-15
6.09401e-15
5.54105e-15
4.96159e-15
4.37555e-15
3.80285e-15
3.26168e-15
2.76693e-15
2.32894e-15
1.95297e-15
1.63935e-15
1.38435e-15
1.18155e-15
1.02312e-15
9.01034e-16
4.50569e-15
4.46175e-15
4.37467e-15
4.24611e-15
4.07874e-15
3.8763e-15
3.64376e-15
3.38729e-15
3.11415e-15
2.83238e-15
2.55038e-15
2.27626e-15
2.01726e-15
1.77918e-15
1.56601e-15
1.37977e-15
1.2207e-15
1.08751e-15
9.77907e-16
8.89029e-16
2.9002e-15
2.87861e-15
2.83572e-15
2.77219e-15
2.68905e-15
2.58778e-15
2.47038e-15
2.33942e-15
2.19797e-15
2.04954e-15
1.89794e-15
1.74704e-15
1.60053e-15
1.46166e-15
1.33303e-15
1.21644e-15
1.11289e-15
1.02263e-15
9.45276e-16
8.79983e-16
2.08609e-15
2.07452e-15
2.05152e-15
2.01734e-15
1.9724e-15
1.91733e-15
1.853e-15
1.78053e-15
1.70132e-15
1.61701e-15
1.52945e-15
1.44059e-15
1.3524e-15
1.26673e-15
1.1852e-15
1.10914e-15
1.0395e-15
9.76846e-16
9.21419e-16
8.73143e-16
1.63751e-15
1.63086e-15
1.61761e-15
1.59786e-15
1.57181e-15
1.53973e-15
1.50201e-15
1.45917e-15
1.4119e-15
1.361e-15
1.30743e-15
1.25221e-15
1.19644e-15
1.14121e-15
1.08752e-15
1.03629e-15
9.88255e-16
9.43972e-16
9.0381e-16
8.67957e-16
1.37295e-15
1.36889e-15
1.3608e-15
1.34872e-15
1.33273e-15
1.31297e-15
1.2896e-15
1.2629e-15
1.23321e-15
1.20095e-15
1.16664e-15
1.13084e-15
1.09418e-15
1.05733e-15
1.02092e-15
9.85562e-16
9.51791e-16
9.20061e-16
8.90723e-16
8.64022e-16
1.20816e-15
1.20557e-15
1.20039e-15
1.19265e-15
1.18238e-15
1.16964e-15
1.15453e-15
1.13717e-15
1.11776e-15
1.09651e-15
1.07373e-15
1.04974e-15
1.02492e-15
9.99673e-16
9.74415e-16
9.49553e-16
9.25468e-16
9.02504e-16
8.80949e-16
8.61034e-16
1.10098e-15
1.09926e-15
1.09583e-15
1.09068e-15
1.08384e-15
1.07534e-15
1.06522e-15
1.05356e-15
1.04046e-15
1.02605e-15
1.0105e-15
9.9401e-16
9.76815e-16
9.5917e-16
9.41347e-16
9.23622e-16
9.06263e-16
8.89524e-16
8.73628e-16
8.58767e-16
1.02889e-15
1.02771e-15
1.02536e-15
1.02184e-15
1.01716e-15
1.01133e-15
1.00438e-15
9.96344e-16
9.87286e-16
9.77286e-16
9.66446e-16
9.54891e-16
9.42771e-16
9.30252e-16
9.17516e-16
9.0475e-16
8.92144e-16
8.79882e-16
8.68133e-16
8.57048e-16
9.79107e-16
9.78287e-16
9.76647e-16
9.74187e-16
9.70913e-16
9.66831e-16
9.61957e-16
9.56314e-16
9.49938e-16
9.42879e-16
9.35203e-16
9.26989e-16
9.18337e-16
9.09357e-16
9.00171e-16
8.90911e-16
8.8171e-16
8.72699e-16
8.64007e-16
8.55746e-16
9.44055e-16
9.43473e-16
9.42309e-16
9.40562e-16
9.38236e-16
9.35334e-16
9.31865e-16
9.27845e-16
9.23296e-16
9.18251e-16
9.12752e-16
9.06853e-16
9.00619e-16
8.94127e-16
8.8746e-16
8.8071e-16
8.73971e-16
8.6734e-16
8.60908e-16
8.54763e-16
9.19008e-16
9.18589e-16
9.17753e-16
9.16498e-16
9.14826e-16
9.1274e-16
9.10245e-16
9.07351e-16
9.04075e-16
9.00436e-16
8.96464e-16
8.92197e-16
8.87677e-16
8.82959e-16
8.781e-16
8.73165e-16
8.68222e-16
8.63339e-16
8.58584e-16
8.54022e-16
9.00916e-16
9.00613e-16
9.00007e-16
8.99098e-16
8.97887e-16
8.96375e-16
8.94568e-16
8.92471e-16
8.90095e-16
8.87455e-16
8.84571e-16
8.81468e-16
8.78179e-16
8.74738e-16
8.71189e-16
8.67576e-16
8.63947e-16
8.60354e-16
8.56844e-16
8.53465e-16
8.87751e-16
8.87531e-16
8.87089e-16
8.86427e-16
8.85545e-16
8.84444e-16
8.83128e-16
8.81601e-16
8.79871e-16
8.77949e-16
8.75848e-16
8.73586e-16
8.71186e-16
8.68674e-16
8.66078e-16
8.63432e-16
8.6077e-16
8.58128e-16
8.55543e-16
8.53048e-16
8.78124e-16
8.77962e-16
8.7764e-16
8.77156e-16
8.76512e-16
8.75708e-16
8.74747e-16
8.73633e-16
8.7237e-16
8.70968e-16
8.69434e-16
8.67784e-16
8.66031e-16
8.64196e-16
8.62298e-16
8.60362e-16
8.58411e-16
8.56473e-16
8.54572e-16
8.52736e-16
8.71063e-16
8.70945e-16
8.70708e-16
8.70355e-16
8.69883e-16
8.69296e-16
8.68594e-16
8.6778e-16
8.66858e-16
8.65833e-16
8.64714e-16
8.63509e-16
8.6223e-16
8.6089e-16
8.59504e-16
8.58089e-16
8.56663e-16
8.55244e-16
8.53851e-16
8.52503e-16
8.65877e-16
8.65791e-16
8.65618e-16
8.65359e-16
8.65014e-16
8.64585e-16
8.64072e-16
8.63477e-16
8.62804e-16
8.62057e-16
8.61241e-16
8.60363e-16
8.5943e-16
8.58453e-16
8.57443e-16
8.56411e-16
8.5537e-16
8.54334e-16
8.53316e-16
8.52331e-16
8.62069e-16
8.62006e-16
8.6188e-16
8.61691e-16
8.61439e-16
8.61125e-16
8.60751e-16
8.60317e-16
8.59827e-16
8.59282e-16
8.58688e-16
8.58049e-16
8.5737e-16
8.5666e-16
8.55925e-16
8.55174e-16
8.54417e-16
8.53663e-16
8.52921e-16
8.52203e-16
8.59276e-16
8.5923e-16
8.59138e-16
8.59e-16
8.58816e-16
8.58588e-16
8.58315e-16
8.58e-16
8.57643e-16
8.57247e-16
8.56815e-16
8.56351e-16
8.55858e-16
8.55343e-16
8.54809e-16
8.54265e-16
8.53716e-16
8.53169e-16
8.52631e-16
8.52109e-16
8.57232e-16
8.57198e-16
8.57131e-16
8.57031e-16
8.56897e-16
8.56731e-16
8.56533e-16
8.56304e-16
8.56045e-16
8.55758e-16
8.55445e-16
8.55108e-16
8.54752e-16
8.54379e-16
8.53993e-16
8.53599e-16
8.53202e-16
8.52807e-16
8.52418e-16
8.5204e-16
8.55739e-16
8.55715e-16
8.55666e-16
8.55593e-16
8.55496e-16
8.55376e-16
8.55232e-16
8.55066e-16
8.54879e-16
8.54671e-16
8.54445e-16
8.54202e-16
8.53945e-16
8.53676e-16
8.53398e-16
8.53114e-16
8.52827e-16
8.52542e-16
8.52262e-16
8.5199e-16
8.54654e-16
8.54636e-16
8.54601e-16
8.54548e-16
8.54478e-16
8.54391e-16
8.54287e-16
8.54168e-16
8.54032e-16
8.53882e-16
8.53719e-16
8.53544e-16
8.53359e-16
8.53165e-16
8.52965e-16
8.52761e-16
8.52555e-16
8.5235e-16
8.52149e-16
8.51953e-16
8.53869e-16
8.53856e-16
8.53831e-16
8.53793e-16
8.53742e-16
8.53679e-16
8.53604e-16
8.53518e-16
8.5342e-16
8.53312e-16
8.53195e-16
8.53069e-16
8.52936e-16
8.52797e-16
8.52653e-16
8.52506e-16
8.52359e-16
8.52212e-16
8.52067e-16
8.51927e-16
8.53306e-16
8.53296e-16
8.53278e-16
8.5325e-16
8.53214e-16
8.53168e-16
8.53114e-16
8.53052e-16
8.52982e-16
8.52904e-16
8.52819e-16
8.52729e-16
8.52633e-16
8.52533e-16
8.52429e-16
8.52324e-16
8.52218e-16
8.52112e-16
8.52008e-16
8.51908e-16
8.52906e-16
8.52899e-16
8.52886e-16
8.52866e-16
8.52839e-16
8.52806e-16
8.52767e-16
8.52721e-16
8.5267e-16
8.52614e-16
8.52553e-16
8.52487e-16
8.52418e-16
8.52345e-16
8.52271e-16
8.52195e-16
8.52118e-16
8.52042e-16
8.51967e-16
8.51894e-16
8.52628e-16
8.52623e-16
8.52613e-16
8.52598e-16
8.52579e-16
8.52554e-16
8.52525e-16
8.52492e-16
8.52454e-16
8.52413e-16
8.52368e-16
8.5232e-16
8.52269e-16
8.52216e-16
8.52161e-16
8.52105e-16
8.52049e-16
8.51993e-16
8.51938e-16
8.51885e-16
8.52442e-16
8.52439e-16
8.52431e-16
8.5242e-16
8.52405e-16
8.52386e-16
8.52364e-16
8.52339e-16
8.5231e-16
8.52279e-16
8.52244e-16
8.52208e-16
8.52169e-16
8.52129e-16
8.52088e-16
8.52045e-16
8.52003e-16
8.51961e-16
8.51919e-16
8.51879e-16
8.52329e-16
8.52326e-16
8.5232e-16
8.52311e-16
8.52299e-16
8.52284e-16
8.52266e-16
8.52245e-16
8.52222e-16
8.52197e-16
8.52169e-16
8.5214e-16
8.52109e-16
8.52076e-16
8.52043e-16
8.52009e-16
8.51975e-16
8.51941e-16
8.51907e-16
8.51875e-16
8.52275e-16
8.52272e-16
8.52267e-16
8.52259e-16
8.52248e-16
8.52235e-16
8.52219e-16
8.52201e-16
8.5218e-16
8.52158e-16
8.52133e-16
8.52107e-16
8.5208e-16
8.52051e-16
8.52022e-16
8.51992e-16
8.51961e-16
8.51931e-16
8.51902e-16
8.51873e-16
)
;

boundaryField
{
    topWall
    {
        type            calculated;
        value           uniform 0;
    }
    bottomWall
    {
        type            zeroGradient;
    }
    sideWallL
    {
        type            symmetry;
    }
    sideWallR
    {
        type            calculated;
        value           uniform 0;
    }
    frontAndBack
    {
        type            empty;
    }
}


// ************************************************************************* //
