/*--------------------------------*- C++ -*----------------------------------*\
  =========                 |
  \\      /  F ield         | OpenFOAM: The Open Source CFD Toolbox
   \\    /   O peration     | Website:  https://openfoam.org
    \\  /    A nd           | Version:  7
     \\/     M anipulation  |
\*---------------------------------------------------------------------------*/
FoamFile
{
    version     2.0;
    format      ascii;
    class       volScalarField;
    location    "32";
    object      rhois;
}
// * * * * * * * * * * * * * * * * * * * * * * * * * * * * * * * * * * * * * //

dimensions      [1 -3 0 0 0 0 0];

internalField   nonuniform List<scalar> 
900
(
0.200269
0.200098
0.199746
0.199189
0.198393
0.197306
0.195854
0.193936
0.19141
0.188082
0.183676
0.1778
0.169883
0.159079
0.144095
0.122948
0.09283
0.0519843
0.0115539
4.51079e-05
0.0314988
0.0314092
0.0312252
0.0309364
0.0305269
0.029974
0.0292472
0.0283067
0.0271025
0.0255728
0.0236451
0.021241
0.0182897
0.0147614
0.0107379
0.00653854
0.00286235
0.000636651
2.94748e-05
2.11867e-08
0.00500812
0.00498233
0.00492954
0.00484731
0.00473191
0.00457836
0.00438039
0.00413075
0.00382167
0.00344607
0.00299967
0.00248481
0.00191623
0.00132848
0.000781313
0.00035244
0.000101451
1.31183e-05
3.84705e-07
8.3071e-10
0.000796363
0.000790272
0.000777862
0.000758689
0.000732105
0.00069731
0.000653427
0.000599648
0.000535488
0.00046116
0.000378129
0.000289762
0.000201883
0.000122652
6.0894e-05
2.2285e-05
5.09191e-06
5.57888e-07
2.00619e-08
1.90182e-10
0.000129055
0.000127743
0.000125083
0.000121008
0.00011543
0.000108254
9.94069e-05
8.88763e-05
7.67702e-05
6.33878e-05
4.92941e-05
3.53618e-05
2.27201e-05
1.2532e-05
5.58171e-06
1.83772e-06
3.94989e-07
4.71939e-08
2.69987e-09
8.76683e-11
2.17859e-05
2.1513e-05
2.09625e-05
2.01264e-05
1.89962e-05
1.75663e-05
1.58414e-05
1.3844e-05
1.1625e-05
9.27295e-06
6.91898e-06
4.7295e-06
2.87926e-06
1.50271e-06
6.38947e-07
2.07185e-07
4.73194e-08
7.0467e-09
6.75758e-10
5.55242e-11
3.91528e-06
3.85827e-06
3.74384e-06
3.57145e-06
3.34104e-06
3.05397e-06
2.71432e-06
2.33033e-06
1.91593e-06
1.4915e-06
1.08327e-06
7.2011e-07
4.27478e-07
2.19663e-07
9.40563e-08
3.21307e-08
8.39603e-09
1.64418e-09
2.55488e-10
4.14984e-11
7.64534e-07
7.52208e-07
7.2757e-07
6.90707e-07
6.41919e-07
5.81912e-07
5.12036e-07
4.34538e-07
3.52743e-07
2.71042e-07
1.94554e-07
1.28342e-07
7.62798e-08
3.99093e-08
1.79177e-08
6.73686e-09
2.09006e-09
5.42424e-10
1.28047e-10
3.41322e-11
1.65166e-07
1.62339e-07
1.56706e-07
1.48325e-07
1.37319e-07
1.23914e-07
1.08489e-07
9.16129e-08
7.40655e-08
5.68061e-08
4.0879e-08
2.72451e-08
1.65713e-08
9.05474e-09
4.37964e-09
1.85692e-09
6.92339e-10
2.34193e-10
7.81225e-11
2.97957e-11
4.00712e-08
3.93698e-08
3.79757e-08
3.59097e-08
3.32112e-08
2.99467e-08
2.62187e-08
2.2173e-08
1.79988e-08
1.3919e-08
1.01661e-08
6.94558e-09
4.39473e-09
2.55155e-09
1.35071e-09
6.52171e-10
2.91133e-10
1.24612e-10
5.47528e-11
2.70436e-11
1.10429e-08
1.0852e-08
1.04731e-08
9.9131e-09
9.1839e-09
8.3049e-09
7.30471e-09
6.22245e-09
5.10738e-09
4.01597e-09
3.00598e-09
2.12799e-09
1.41634e-09
8.8265e-10
5.1485e-10
2.82936e-10
1.49106e-10
7.78924e-11
4.23369e-11
2.52045e-11
3.48395e-09
3.42642e-09
3.31234e-09
3.14387e-09
2.92476e-09
2.66085e-09
2.36058e-09
2.03522e-09
1.69871e-09
1.36687e-09
1.05585e-09
7.79973e-10
5.49538e-10
3.69117e-10
2.37166e-10
1.47121e-10
8.96336e-11
5.50265e-11
3.51072e-11
2.39295e-11
1.26404e-09
1.24476e-09
1.20653e-09
1.15006e-09
1.07656e-09
9.87921e-10
8.86788e-10
7.76682e-10
6.61931e-10
5.47443e-10
4.38284e-10
3.39083e-10
2.5341e-10
1.83273e-10
1.28918e-10
8.90178e-11
6.11811e-11
4.25979e-11
3.0604e-11
2.30218e-11
5.28201e-10
5.21014e-10
5.06752e-10
4.85664e-10
4.58166e-10
4.24899e-10
3.86762e-10
3.44949e-10
3.0093e-10
2.56387e-10
2.13088e-10
1.7271e-10
1.36645e-10
1.05825e-10
8.06312e-11
6.09053e-11
4.60653e-11
3.52809e-11
2.7655e-11
2.23627e-11
2.53776e-10
2.50806e-10
2.44907e-10
2.36168e-10
2.24742e-10
2.10861e-10
1.94853e-10
1.77156e-10
1.58313e-10
1.38956e-10
1.19765e-10
1.01409e-10
8.44839e-11
6.94419e-11
5.65529e-11
4.58897e-11
3.73497e-11
3.07028e-11
2.56498e-11
2.18772e-11
1.39389e-10
1.38037e-10
1.35349e-10
1.31359e-10
1.26125e-10
1.19736e-10
1.12321e-10
1.04052e-10
9.51454e-11
8.58595e-11
7.64781e-11
6.72925e-11
5.85762e-11
5.05593e-11
4.34082e-11
3.72141e-11
3.1994e-11
2.77019e-11
2.42473e-11
2.15157e-11
8.65973e-11
8.59257e-11
8.45884e-11
8.25989e-11
7.99803e-11
7.67689e-11
7.30178e-11
6.87992e-11
6.42061e-11
5.93511e-11
5.43621e-11
4.93747e-11
4.45232e-11
3.99292e-11
3.5692e-11
3.18819e-11
2.85367e-11
2.56638e-11
2.32451e-11
2.12444e-11
5.99225e-11
5.95618e-11
5.88428e-11
5.77707e-11
5.63552e-11
5.46115e-11
5.25626e-11
5.02407e-11
4.76881e-11
4.49571e-11
4.21089e-11
3.92109e-11
3.63325e-11
3.35405e-11
3.08945e-11
2.84424e-11
2.62183e-11
2.42415e-11
2.25173e-11
2.10396e-11
4.53446e-11
4.51375e-11
4.4724e-11
4.41064e-11
4.32886e-11
4.22773e-11
4.10829e-11
3.97203e-11
3.82097e-11
3.65769e-11
3.4853e-11
3.30731e-11
3.12748e-11
2.94964e-11
2.77737e-11
2.61388e-11
2.46174e-11
2.32281e-11
2.19823e-11
2.08844e-11
3.68321e-11
3.67062e-11
3.64547e-11
3.60784e-11
3.55788e-11
3.49591e-11
3.42239e-11
3.33806e-11
3.24393e-11
3.14134e-11
3.03192e-11
2.91761e-11
2.80055e-11
2.68297e-11
2.56711e-11
2.45506e-11
2.34868e-11
2.24947e-11
2.15856e-11
2.07666e-11
3.15816e-11
3.15014e-11
3.13411e-11
3.11009e-11
3.07815e-11
3.03841e-11
2.99112e-11
2.93663e-11
2.87547e-11
2.80837e-11
2.73625e-11
2.66019e-11
2.58147e-11
2.50144e-11
2.42152e-11
2.3431e-11
2.26747e-11
2.19577e-11
2.12894e-11
2.06769e-11
2.81959e-11
2.81429e-11
2.80368e-11
2.78776e-11
2.76657e-11
2.74015e-11
2.70862e-11
2.67218e-11
2.6311e-11
2.58581e-11
2.53683e-11
2.4848e-11
2.43051e-11
2.37481e-11
2.3186e-11
2.26283e-11
2.20838e-11
2.15611e-11
2.10673e-11
2.06087e-11
2.59339e-11
2.58977e-11
2.58253e-11
2.57167e-11
2.55719e-11
2.53911e-11
2.5175e-11
2.49246e-11
2.46415e-11
2.43281e-11
2.39876e-11
2.36241e-11
2.32424e-11
2.28479e-11
2.24468e-11
2.20454e-11
2.16498e-11
2.12663e-11
2.09003e-11
2.05568e-11
2.43797e-11
2.43545e-11
2.43039e-11
2.42281e-11
2.41269e-11
2.40004e-11
2.3849e-11
2.36733e-11
2.34742e-11
2.32532e-11
2.30123e-11
2.27542e-11
2.24818e-11
2.2199e-11
2.19096e-11
2.16181e-11
2.13289e-11
2.10463e-11
2.07745e-11
2.05173e-11
2.32886e-11
2.32706e-11
2.32347e-11
2.31808e-11
2.31088e-11
2.30188e-11
2.2911e-11
2.27857e-11
2.26436e-11
2.24856e-11
2.23129e-11
2.21273e-11
2.19309e-11
2.17262e-11
2.15158e-11
2.13028e-11
2.10904e-11
2.08817e-11
2.06797e-11
2.04873e-11
2.25098e-11
2.24969e-11
2.2471e-11
2.24321e-11
2.23803e-11
2.23154e-11
2.22377e-11
2.21474e-11
2.20448e-11
2.19306e-11
2.18056e-11
2.16711e-11
2.15283e-11
2.13791e-11
2.12254e-11
2.10691e-11
2.09127e-11
2.07584e-11
2.06083e-11
2.04646e-11
2.1947e-11
2.19376e-11
2.19188e-11
2.18905e-11
2.18528e-11
2.18057e-11
2.17492e-11
2.16835e-11
2.16088e-11
2.15257e-11
2.14347e-11
2.13365e-11
2.12323e-11
2.11231e-11
2.10103e-11
2.08954e-11
2.07801e-11
2.06659e-11
2.05545e-11
2.04475e-11
2.15367e-11
2.15298e-11
2.15161e-11
2.14954e-11
2.14678e-11
2.14333e-11
2.1392e-11
2.13439e-11
2.12893e-11
2.12285e-11
2.11619e-11
2.109e-11
2.10136e-11
2.09335e-11
2.08507e-11
2.07661e-11
2.06811e-11
2.05967e-11
2.05141e-11
2.04345e-11
2.12357e-11
2.12307e-11
2.12206e-11
2.12054e-11
2.11851e-11
2.11598e-11
2.11294e-11
2.10941e-11
2.10541e-11
2.10095e-11
2.09606e-11
2.09079e-11
2.08518e-11
2.0793e-11
2.07321e-11
2.06699e-11
2.06072e-11
2.05448e-11
2.04838e-11
2.04248e-11
2.1014e-11
2.10103e-11
2.10029e-11
2.09917e-11
2.09768e-11
2.09581e-11
2.09358e-11
2.09099e-11
2.08804e-11
2.08477e-11
2.08118e-11
2.07731e-11
2.07319e-11
2.06887e-11
2.06439e-11
2.05982e-11
2.0552e-11
2.05061e-11
2.04611e-11
2.04175e-11
2.08504e-11
2.08477e-11
2.08422e-11
2.08339e-11
2.08229e-11
2.08092e-11
2.07928e-11
2.07737e-11
2.07521e-11
2.0728e-11
2.07017e-11
2.06733e-11
2.06431e-11
2.06114e-11
2.05785e-11
2.05449e-11
2.0511e-11
2.04773e-11
2.04441e-11
2.0412e-11
2.07295e-11
2.07275e-11
2.07235e-11
2.07174e-11
2.07093e-11
2.06992e-11
2.06871e-11
2.06731e-11
2.06573e-11
2.06396e-11
2.06203e-11
2.05995e-11
2.05773e-11
2.05541e-11
2.053e-11
2.05054e-11
2.04806e-11
2.04558e-11
2.04315e-11
2.04079e-11
2.06403e-11
2.06388e-11
2.06358e-11
2.06313e-11
2.06254e-11
2.0618e-11
2.06091e-11
2.05988e-11
2.05872e-11
2.05743e-11
2.05601e-11
2.05449e-11
2.05287e-11
2.05117e-11
2.04942e-11
2.04762e-11
2.0458e-11
2.044e-11
2.04222e-11
2.04049e-11
2.05744e-11
2.05734e-11
2.05712e-11
2.05679e-11
2.05635e-11
2.05581e-11
2.05516e-11
2.05441e-11
2.05356e-11
2.05261e-11
2.05158e-11
2.05047e-11
2.04929e-11
2.04805e-11
2.04677e-11
2.04546e-11
2.04414e-11
2.04282e-11
2.04153e-11
2.04027e-11
2.0526e-11
2.05252e-11
2.05236e-11
2.05212e-11
2.0518e-11
2.05141e-11
2.05093e-11
2.05038e-11
2.04976e-11
2.04907e-11
2.04832e-11
2.04751e-11
2.04666e-11
2.04576e-11
2.04483e-11
2.04387e-11
2.04292e-11
2.04196e-11
2.04102e-11
2.0401e-11
2.04905e-11
2.04899e-11
2.04887e-11
2.0487e-11
2.04846e-11
2.04817e-11
2.04783e-11
2.04743e-11
2.04698e-11
2.04648e-11
2.04593e-11
2.04535e-11
2.04472e-11
2.04407e-11
2.0434e-11
2.04271e-11
2.04202e-11
2.04133e-11
2.04064e-11
2.03998e-11
2.04645e-11
2.0464e-11
2.04632e-11
2.04619e-11
2.04602e-11
2.04581e-11
2.04556e-11
2.04527e-11
2.04495e-11
2.04458e-11
2.04419e-11
2.04377e-11
2.04332e-11
2.04285e-11
2.04236e-11
2.04186e-11
2.04136e-11
2.04086e-11
2.04037e-11
2.0399e-11
2.04455e-11
2.04452e-11
2.04446e-11
2.04437e-11
2.04425e-11
2.04409e-11
2.04391e-11
2.0437e-11
2.04347e-11
2.04321e-11
2.04292e-11
2.04262e-11
2.04229e-11
2.04195e-11
2.0416e-11
2.04125e-11
2.04089e-11
2.04053e-11
2.04017e-11
2.03983e-11
2.04318e-11
2.04316e-11
2.04312e-11
2.04305e-11
2.04296e-11
2.04285e-11
2.04272e-11
2.04257e-11
2.0424e-11
2.04221e-11
2.04201e-11
2.04178e-11
2.04155e-11
2.04131e-11
2.04106e-11
2.0408e-11
2.04054e-11
2.04028e-11
2.04003e-11
2.03979e-11
2.0422e-11
2.04218e-11
2.04215e-11
2.0421e-11
2.04204e-11
2.04196e-11
2.04186e-11
2.04175e-11
2.04163e-11
2.0415e-11
2.04135e-11
2.04119e-11
2.04102e-11
2.04085e-11
2.04067e-11
2.04048e-11
2.0403e-11
2.04011e-11
2.03993e-11
2.03975e-11
2.0415e-11
2.04149e-11
2.04146e-11
2.04143e-11
2.04138e-11
2.04132e-11
2.04126e-11
2.04118e-11
2.04109e-11
2.04099e-11
2.04088e-11
2.04077e-11
2.04065e-11
2.04052e-11
2.04039e-11
2.04025e-11
2.04012e-11
2.03999e-11
2.03986e-11
2.03973e-11
2.04101e-11
2.041e-11
2.04099e-11
2.04096e-11
2.04093e-11
2.04088e-11
2.04083e-11
2.04078e-11
2.04071e-11
2.04064e-11
2.04056e-11
2.04047e-11
2.04038e-11
2.04029e-11
2.0402e-11
2.0401e-11
2.04e-11
2.0399e-11
2.03981e-11
2.03971e-11
2.04069e-11
2.04068e-11
2.04067e-11
2.04065e-11
2.04062e-11
2.04059e-11
2.04055e-11
2.04051e-11
2.04046e-11
2.0404e-11
2.04034e-11
2.04028e-11
2.04021e-11
2.04014e-11
2.04007e-11
2.03999e-11
2.03992e-11
2.03984e-11
2.03977e-11
2.0397e-11
2.04049e-11
2.04048e-11
2.04047e-11
2.04046e-11
2.04044e-11
2.04041e-11
2.04038e-11
2.04034e-11
2.0403e-11
2.04026e-11
2.04021e-11
2.04016e-11
2.0401e-11
2.04005e-11
2.03999e-11
2.03993e-11
2.03987e-11
2.03981e-11
2.03975e-11
2.03969e-11
2.0404e-11
2.04039e-11
2.04038e-11
2.04037e-11
2.04035e-11
2.04033e-11
2.0403e-11
2.04027e-11
2.04023e-11
2.04019e-11
2.04015e-11
2.0401e-11
2.04005e-11
2.04e-11
2.03995e-11
2.0399e-11
2.03985e-11
2.03979e-11
2.03974e-11
2.03969e-11
)
;

boundaryField
{
    topWall
    {
        type            zeroGradient;
    }
    bottomWall
    {
        type            zeroGradient;
    }
    sideWallL
    {
        type            symmetry;
    }
    sideWallR
    {
        type            zeroGradient;
    }
    frontAndBack
    {
        type            empty;
    }
}


// ************************************************************************* //
