/*--------------------------------*- C++ -*----------------------------------*\
  =========                 |
  \\      /  F ield         | OpenFOAM: The Open Source CFD Toolbox
   \\    /   O peration     | Website:  https://openfoam.org
    \\  /    A nd           | Version:  7
     \\/     M anipulation  |
\*---------------------------------------------------------------------------*/
FoamFile
{
    version     2.0;
    format      ascii;
    class       volScalarField;
    location    "32";
    object      rhot2;
}
// * * * * * * * * * * * * * * * * * * * * * * * * * * * * * * * * * * * * * //

dimensions      [1 -3 0 0 0 0 0];

internalField   nonuniform List<scalar> 
900
(
0.00624361
0.00622974
0.0062012
0.00615637
0.00609263
0.0060063
0.0058923
0.00574387
0.00555221
0.00530594
0.0049907
0.0045889
0.00408025
0.00344442
0.00266926
0.001773
0.000858591
0.000191681
3.87862e-06
2.08849e-12
5.4162e-05
5.37582e-05
5.29344e-05
5.16584e-05
4.9883e-05
4.75483e-05
4.45863e-05
4.09305e-05
3.65321e-05
3.13879e-05
2.55823e-05
1.93435e-05
1.31012e-05
7.50018e-06
3.27814e-06
9.02774e-07
1.05457e-07
2.11527e-09
7.05894e-13
4.00667e-21
4.75772e-07
4.69353e-07
4.56387e-07
4.36643e-07
4.0986e-07
3.75857e-07
3.3471e-07
2.87e-07
2.34125e-07
1.78615e-07
1.24296e-07
7.60177e-08
3.85907e-08
1.48477e-08
3.72271e-09
4.67702e-10
1.8212e-11
8.75521e-14
8.51406e-18
7.33766e-25
4.14421e-09
4.0613e-09
3.89562e-09
3.64809e-09
3.32158e-09
2.92274e-09
2.46426e-09
1.96721e-09
1.46235e-09
9.88811e-10
5.8822e-10
2.93288e-10
1.14077e-10
3.10393e-11
4.98632e-12
3.6101e-13
7.61334e-15
2.32331e-17
3.66178e-21
1.37326e-26
3.76093e-11
3.66102e-11
3.46364e-11
3.17445e-11
2.80377e-11
2.36834e-11
1.89296e-11
1.41074e-11
9.60698e-12
5.81394e-12
3.00819e-12
1.2604e-12
3.95881e-13
8.34219e-14
1.00417e-14
5.47017e-16
9.6923e-18
3.61398e-20
1.82651e-23
1.66333e-27
3.76329e-13
3.6402e-13
3.39969e-13
3.05386e-13
2.62251e-13
2.13418e-13
1.62596e-13
1.14073e-13
7.2076e-14
3.98042e-14
1.84529e-14
6.79935e-15
1.84905e-15
3.35653e-16
3.55431e-17
1.84096e-18
3.75931e-20
2.42588e-22
4.53735e-25
4.77199e-28
4.392e-15
4.22507e-15
3.90208e-15
3.44537e-15
2.8893e-15
2.27964e-15
1.67056e-15
1.11765e-15
6.6733e-16
3.45178e-16
1.48781e-16
5.0809e-17
1.28812e-17
2.23197e-18
2.38701e-19
1.39965e-20
3.99115e-22
5.13034e-24
3.28676e-26
2.15678e-28
6.30128e-17
6.03584e-17
5.52643e-17
4.81592e-17
3.96745e-17
3.06051e-17
2.18244e-17
1.41461e-17
8.15535e-18
4.06767e-18
1.69515e-18
5.65201e-19
1.43008e-19
2.57939e-20
3.09261e-21
2.29916e-22
1.00788e-23
2.63972e-25
4.98133e-27
1.26924e-28
1.16422e-18
1.11204e-18
1.01249e-18
8.75008e-19
7.13079e-19
5.42978e-19
3.81646e-19
2.43774e-19
1.38748e-19
6.86817e-20
2.87114e-20
9.78871e-21
2.61513e-21
5.2422e-22
7.55638e-23
7.58222e-24
5.27627e-25
2.71295e-26
1.27495e-27
8.79999e-29
2.87784e-20
2.74544e-20
2.49379e-20
2.14829e-20
1.74448e-20
1.32412e-20
9.29209e-21
5.94614e-21
3.41163e-21
1.72004e-21
7.44378e-22
2.69349e-22
7.92453e-23
1.84518e-23
3.3291e-24
4.62533e-25
5.07546e-26
4.7991e-27
4.75917e-28
6.78913e-29
9.79317e-22
9.34571e-22
8.49627e-22
7.33216e-22
5.97413e-22
4.56198e-22
3.2342e-22
2.10414e-22
1.23903e-22
6.49981e-23
2.98475e-23
1.17793e-23
3.92553e-24
1.08941e-24
2.5041e-25
4.82152e-26
8.10357e-27
1.30149e-27
2.33278e-28
5.62959e-29
4.67362e-23
4.46795e-23
4.07718e-23
3.54066e-23
2.9126e-23
2.25561e-23
1.63176e-23
1.09248e-23
6.69718e-24
3.71518e-24
1.84236e-24
8.07309e-25
3.09723e-25
1.03615e-25
3.03932e-26
7.98661e-27
1.96882e-27
4.92522e-28
1.39105e-28
4.90785e-29
3.15654e-24
3.02668e-24
2.77927e-24
2.4379e-24
2.03514e-24
1.60882e-24
1.19706e-24
8.3243e-25
5.36801e-25
3.18427e-25
1.72436e-25
8.47299e-26
3.76724e-26
1.52001e-26
5.63248e-27
1.96566e-27
6.73784e-28
2.40545e-28
9.54725e-29
4.43347e-29
3.02082e-25
2.90811e-25
2.69246e-25
2.39269e-25
2.03499e-25
1.65022e-25
1.27021e-25
9.23376e-26
6.30651e-26
4.02689e-26
2.39457e-26
1.32362e-26
6.81226e-27
3.2871e-27
1.50843e-27
6.73867e-28
3.02788e-28
1.42238e-28
7.24816e-29
4.10908e-29
4.07666e-26
3.94308e-26
3.68617e-26
3.32577e-26
2.88982e-26
2.41184e-26
1.9275e-26
1.47028e-26
1.06717e-26
7.3526e-27
4.80304e-27
2.97765e-27
1.75901e-27
9.98302e-28
5.51557e-28
3.02169e-28
1.67876e-28
9.68308e-29
5.91718e-29
3.88071e-29
7.68017e-27
7.46689e-27
7.05431e-27
6.46964e-27
5.75172e-27
4.94828e-27
4.11176e-27
3.29401e-27
2.54045e-27
1.88485e-27
1.34603e-27
9.27364e-28
6.19275e-28
4.03826e-28
2.59832e-28
1.67106e-28
1.08966e-28
7.3047e-29
5.09138e-29
3.71645e-29
1.98608e-27
1.9411e-27
1.85355e-27
1.72819e-27
1.57191e-27
1.39338e-27
1.20248e-27
1.00943e-27
8.23912e-28
6.54036e-28
5.05571e-28
3.81536e-28
2.82261e-28
2.05897e-28
1.49184e-28
1.08281e-28
7.94272e-29
5.93682e-29
4.55203e-29
3.5964e-29
6.86382e-28
6.74172e-28
6.50271e-28
6.15709e-28
5.72004e-28
5.21112e-28
4.65334e-28
4.07175e-28
3.49151e-28
2.93582e-28
2.42387e-28
1.96928e-28
1.57942e-28
1.25564e-28
9.94373e-29
7.88689e-29
6.29977e-29
5.09347e-29
4.18605e-29
3.50762e-29
3.05256e-28
3.01128e-28
2.93006e-28
2.81157e-28
2.65985e-28
2.4802e-28
2.27907e-28
2.06378e-28
1.84212e-28
1.6218e-28
1.40988e-28
1.21225e-28
1.03326e-28
8.75458e-29
7.3974e-29
6.25542e-29
5.31245e-29
4.54589e-29
3.93054e-29
3.44141e-29
1.66975e-28
1.65299e-28
1.61986e-28
1.57117e-28
1.50818e-28
1.43256e-28
1.34641e-28
1.25222e-28
1.15276e-28
1.05093e-28
9.49617e-29
8.51473e-29
7.58765e-29
6.73235e-29
5.96035e-29
5.27736e-29
4.68389e-29
4.17635e-29
3.74832e-29
3.39173e-29
1.07304e-28
1.06515e-28
1.0495e-28
1.02638e-28
9.96212e-29
9.596e-29
9.17322e-29
8.70327e-29
8.19719e-29
7.66718e-29
7.12602e-29
6.58643e-29
6.06029e-29
5.55799e-29
5.08789e-29
4.65605e-29
4.26615e-29
3.91969e-29
3.61632e-29
3.35429e-29
7.77934e-29
7.73768e-29
7.65485e-29
7.5319e-29
7.37048e-29
7.17297e-29
6.94252e-29
6.68313e-29
6.39965e-29
6.09764e-29
5.78324e-29
5.46291e-29
5.14306e-29
4.8298e-29
4.52858e-29
4.24397e-29
3.97949e-29
3.73757e-29
3.51959e-29
3.32601e-29
6.15902e-29
6.135e-29
6.08715e-29
6.0159e-29
5.92192e-29
5.80622e-29
5.67019e-29
5.51565e-29
5.3449e-29
5.16068e-29
4.96612e-29
4.76468e-29
4.55999e-29
4.35567e-29
4.1552e-29
3.96175e-29
3.77805e-29
3.60629e-29
3.44812e-29
3.30461e-29
5.19626e-29
5.18146e-29
5.15195e-29
5.10788e-29
5.04957e-29
4.97747e-29
4.89222e-29
4.79472e-29
4.68612e-29
4.56787e-29
4.44167e-29
4.30945e-29
4.17334e-29
4.03556e-29
3.89834e-29
3.76383e-29
3.634e-29
3.51058e-29
3.39501e-29
3.28842e-29
4.58938e-29
4.5798e-29
4.56067e-29
4.53207e-29
4.49413e-29
4.44706e-29
4.3912e-29
4.327e-29
4.25509e-29
4.17626e-29
4.09148e-29
4.0019e-29
3.9088e-29
3.81358e-29
3.71769e-29
3.62258e-29
3.52966e-29
3.44022e-29
3.3554e-29
3.27617e-29
4.18962e-29
4.18318e-29
4.17033e-29
4.15108e-29
4.12551e-29
4.09372e-29
4.05589e-29
4.01226e-29
3.96319e-29
3.90915e-29
3.85071e-29
3.78859e-29
3.72358e-29
3.65658e-29
3.58856e-29
3.52051e-29
3.45341e-29
3.38821e-29
3.32579e-29
3.26691e-29
3.91758e-29
3.91314e-29
3.90426e-29
3.89096e-29
3.87328e-29
3.85126e-29
3.82501e-29
3.79467e-29
3.76045e-29
3.72264e-29
3.6816e-29
3.63778e-29
3.59169e-29
3.54395e-29
3.49518e-29
3.44608e-29
3.39733e-29
3.34964e-29
3.30364e-29
3.25992e-29
3.72797e-29
3.72484e-29
3.71859e-29
3.70923e-29
3.69677e-29
3.68124e-29
3.6627e-29
3.64125e-29
3.61701e-29
3.59017e-29
3.56096e-29
3.52967e-29
3.49666e-29
3.46232e-29
3.4271e-29
3.39147e-29
3.35593e-29
3.32097e-29
3.28706e-29
3.25466e-29
3.5935e-29
3.59127e-29
3.58681e-29
3.58013e-29
3.57123e-29
3.56013e-29
3.54688e-29
3.53153e-29
3.51417e-29
3.49492e-29
3.47394e-29
3.45142e-29
3.4276e-29
3.40276e-29
3.3772e-29
3.35126e-29
3.32529e-29
3.29965e-29
3.27468e-29
3.25071e-29
3.49696e-29
3.49535e-29
3.49214e-29
3.48732e-29
3.48091e-29
3.47291e-29
3.46336e-29
3.45229e-29
3.43977e-29
3.42587e-29
3.4107e-29
3.3944e-29
3.37714e-29
3.3591e-29
3.3405e-29
3.32159e-29
3.3026e-29
3.2838e-29
3.26543e-29
3.24775e-29
3.42705e-29
3.42588e-29
3.42355e-29
3.42006e-29
3.41542e-29
3.40962e-29
3.4027e-29
3.39468e-29
3.3856e-29
3.37552e-29
3.36452e-29
3.35268e-29
3.34014e-29
3.32702e-29
3.31348e-29
3.29968e-29
3.2858e-29
3.27203e-29
3.25855e-29
3.24554e-29
3.37615e-29
3.3753e-29
3.37361e-29
3.37107e-29
3.36769e-29
3.36348e-29
3.35845e-29
3.35262e-29
3.34602e-29
3.33869e-29
3.3307e-29
3.3221e-29
3.31297e-29
3.30343e-29
3.29356e-29
3.2835e-29
3.27337e-29
3.26331e-29
3.25344e-29
3.2439e-29
3.33897e-29
3.33836e-29
3.33712e-29
3.33527e-29
3.33281e-29
3.32975e-29
3.32608e-29
3.32184e-29
3.31704e-29
3.31172e-29
3.3059e-29
3.29965e-29
3.29302e-29
3.28608e-29
3.2789e-29
3.27157e-29
3.2642e-29
3.25686e-29
3.24965e-29
3.24268e-29
3.31178e-29
3.31133e-29
3.31043e-29
3.30909e-29
3.30729e-29
3.30506e-29
3.3024e-29
3.29931e-29
3.29583e-29
3.29196e-29
3.28773e-29
3.28319e-29
3.27837e-29
3.27333e-29
3.26812e-29
3.2628e-29
3.25744e-29
3.2521e-29
3.24685e-29
3.24177e-29
3.2919e-29
3.29157e-29
3.29092e-29
3.28993e-29
3.28863e-29
3.28701e-29
3.28507e-29
3.28283e-29
3.2803e-29
3.27749e-29
3.27443e-29
3.27114e-29
3.26764e-29
3.26399e-29
3.26021e-29
3.25636e-29
3.25247e-29
3.2486e-29
3.2448e-29
3.24111e-29
3.27737e-29
3.27713e-29
3.27666e-29
3.27595e-29
3.275e-29
3.27382e-29
3.27242e-29
3.27079e-29
3.26896e-29
3.26693e-29
3.26471e-29
3.26233e-29
3.2598e-29
3.25716e-29
3.25443e-29
3.25165e-29
3.24884e-29
3.24604e-29
3.24329e-29
3.24062e-29
3.26679e-29
3.26661e-29
3.26627e-29
3.26575e-29
3.26507e-29
3.26422e-29
3.2632e-29
3.26202e-29
3.2607e-29
3.25923e-29
3.25763e-29
3.25591e-29
3.25409e-29
3.25218e-29
3.25022e-29
3.24821e-29
3.24619e-29
3.24417e-29
3.24219e-29
3.24027e-29
3.2591e-29
3.25898e-29
3.25873e-29
3.25835e-29
3.25786e-29
3.25724e-29
3.25651e-29
3.25566e-29
3.2547e-29
3.25364e-29
3.25249e-29
3.25125e-29
3.24994e-29
3.24857e-29
3.24716e-29
3.24572e-29
3.24426e-29
3.24281e-29
3.24139e-29
3.24001e-29
3.25355e-29
3.25346e-29
3.25328e-29
3.25301e-29
3.25265e-29
3.2522e-29
3.25167e-29
3.25106e-29
3.25037e-29
3.24961e-29
3.24878e-29
3.24789e-29
3.24695e-29
3.24597e-29
3.24495e-29
3.24392e-29
3.24287e-29
3.24183e-29
3.24081e-29
3.23982e-29
3.24956e-29
3.2495e-29
3.24937e-29
3.24917e-29
3.24891e-29
3.24859e-29
3.24821e-29
3.24777e-29
3.24727e-29
3.24672e-29
3.24612e-29
3.24548e-29
3.24481e-29
3.2441e-29
3.24337e-29
3.24263e-29
3.24188e-29
3.24113e-29
3.2404e-29
3.23969e-29
3.24674e-29
3.24669e-29
3.24659e-29
3.24645e-29
3.24626e-29
3.24603e-29
3.24575e-29
3.24543e-29
3.24507e-29
3.24467e-29
3.24424e-29
3.24378e-29
3.24329e-29
3.24278e-29
3.24225e-29
3.24171e-29
3.24117e-29
3.24063e-29
3.24011e-29
3.23959e-29
3.24477e-29
3.24474e-29
3.24467e-29
3.24456e-29
3.24442e-29
3.24425e-29
3.24405e-29
3.24381e-29
3.24355e-29
3.24325e-29
3.24294e-29
3.2426e-29
3.24224e-29
3.24186e-29
3.24147e-29
3.24108e-29
3.24068e-29
3.24029e-29
3.2399e-29
3.23953e-29
3.24346e-29
3.24343e-29
3.24338e-29
3.2433e-29
3.2432e-29
3.24306e-29
3.24291e-29
3.24273e-29
3.24253e-29
3.24231e-29
3.24206e-29
3.24181e-29
3.24153e-29
3.24125e-29
3.24096e-29
3.24066e-29
3.24036e-29
3.24006e-29
3.23977e-29
3.23948e-29
3.24266e-29
3.24264e-29
3.24259e-29
3.24253e-29
3.24244e-29
3.24234e-29
3.24221e-29
3.24207e-29
3.24191e-29
3.24173e-29
3.24153e-29
3.24132e-29
3.2411e-29
3.24088e-29
3.24064e-29
3.2404e-29
3.24016e-29
3.23992e-29
3.23968e-29
3.23946e-29
3.24228e-29
3.24226e-29
3.24222e-29
3.24216e-29
3.24209e-29
3.242e-29
3.24188e-29
3.24176e-29
3.24161e-29
3.24145e-29
3.24128e-29
3.2411e-29
3.2409e-29
3.2407e-29
3.24049e-29
3.24028e-29
3.24007e-29
3.23985e-29
3.23965e-29
3.23944e-29
)
;

boundaryField
{
    topWall
    {
        type            zeroGradient;
    }
    bottomWall
    {
        type            zeroGradient;
    }
    sideWallL
    {
        type            symmetry;
    }
    sideWallR
    {
        type            zeroGradient;
    }
    frontAndBack
    {
        type            empty;
    }
}


// ************************************************************************* //
