/*--------------------------------*- C++ -*----------------------------------*\
  =========                 |
  \\      /  F ield         | OpenFOAM: The Open Source CFD Toolbox
   \\    /   O peration     | Website:  https://openfoam.org
    \\  /    A nd           | Version:  7
     \\/     M anipulation  |
\*---------------------------------------------------------------------------*/
FoamFile
{
    version     2.0;
    format      ascii;
    class       volScalarField;
    location    "32";
    object      rhot1;
}
// * * * * * * * * * * * * * * * * * * * * * * * * * * * * * * * * * * * * * //

dimensions      [1 -3 0 0 0 0 0];

internalField   nonuniform List<scalar> 
900
(
0.498416
0.497861
0.496717
0.494913
0.492338
0.488828
0.484154
0.478
0.469933
0.459358
0.445452
0.427065
0.402578
0.369682
0.325099
0.26439
0.18307
0.0853319
0.0116156
7.13475e-06
0.0448104
0.0446391
0.0442877
0.0437382
0.0429624
0.0419214
0.0405642
0.0388269
0.0366329
0.0338958
0.0305278
0.0264588
0.0216752
0.0162918
0.0106646
0.00551004
0.00183458
0.000247644
4.09663e-06
2.42503e-10
0.00397858
0.00395097
0.00389462
0.0038073
0.00368573
0.00352566
0.00332221
0.00307038
0.00276608
0.00240784
0.00199955
0.00155417
0.00109805
0.000673075
0.000331294
0.000114445
2.16917e-05
1.40718e-06
1.23513e-08
2.92817e-12
0.000350946
0.000347327
0.000339986
0.00032873
0.000313298
0.000293406
0.000268827
0.000239504
0.000205721
0.000168331
0.000128984
9.02848e-05
5.56447e-05
2.85566e-05
1.11869e-05
2.91278e-06
4.03001e-07
2.06914e-08
2.32121e-10
3.78783e-13
3.15957e-05
3.11623e-05
3.0289e-05
2.89644e-05
2.71773e-05
2.4924e-05
2.22188e-05
1.91092e-05
1.56924e-05
1.213e-05
8.65273e-06
5.53962e-06
3.05957e-06
1.37718e-06
4.65218e-07
1.0466e-07
1.32357e-08
7.52237e-10
1.53033e-11
1.27715e-13
2.98929e-06
2.93873e-06
2.83748e-06
2.68555e-06
2.48378e-06
2.23469e-06
1.94373e-06
1.62068e-06
1.28071e-06
9.4455e-07
6.36849e-07
3.81697e-07
1.95779e-07
8.16226e-08
2.58118e-08
5.65614e-09
7.68729e-10
5.78083e-11
2.29585e-12
6.70589e-14
3.05893e-07
2.99872e-07
2.87884e-07
2.70074e-07
2.46756e-07
2.1851e-07
1.86303e-07
1.51596e-07
1.16364e-07
8.29822e-08
5.3894e-08
3.10631e-08
1.53674e-08
6.25428e-09
1.98719e-09
4.63806e-10
7.47486e-11
7.99402e-12
5.95825e-13
4.44869e-14
3.47804e-08
3.40208e-08
3.25158e-08
3.0299e-08
2.74311e-08
2.4011e-08
2.01868e-08
1.61608e-08
1.2183e-08
8.52671e-09
5.44225e-09
3.09802e-09
1.53076e-09
6.35759e-10
2.14108e-10
5.64077e-11
1.13246e-11
1.74255e-12
2.25665e-13
3.3814e-14
4.49982e-09
4.39514e-09
4.18859e-09
3.88633e-09
3.49887e-09
3.04219e-09
2.53868e-09
2.01701e-09
1.51046e-09
1.05293e-09
6.73022e-10
3.8745e-10
1.96806e-10
8.6258e-11
3.1913e-11
9.79943e-12
2.49141e-12
5.41205e-13
1.11781e-13
2.79719e-14
6.75524e-10
6.59385e-10
6.27629e-10
5.81368e-10
5.22429e-10
4.53478e-10
3.7809e-10
3.00655e-10
2.26055e-10
1.5905e-10
1.03467e-10
6.13978e-11
3.27596e-11
1.54989e-11
6.4307e-12
2.33186e-12
7.48212e-13
2.21911e-13
6.71902e-14
2.4453e-14
1.19405e-10
1.16571e-10
1.11003e-10
1.02912e-10
9.26356e-11
8.06539e-11
6.75932e-11
5.42027e-11
4.12953e-11
2.96482e-11
1.9879e-11
1.23302e-11
7.011e-12
3.62799e-12
1.70351e-12
7.29765e-13
2.91147e-13
1.13223e-13
4.64547e-14
2.21901e-14
2.50876e-11
2.45141e-11
2.33878e-11
2.1752e-11
1.96752e-11
1.72532e-11
1.46088e-11
1.1887e-11
9.24385e-12
6.82851e-12
4.7616e-12
3.11549e-12
1.90351e-12
1.08363e-12
5.76281e-13
2.89369e-13
1.40412e-13
6.85189e-14
3.5531e-14
2.06658e-14
6.29444e-12
6.15991e-12
5.89561e-12
5.51135e-12
5.02258e-12
4.45067e-12
3.8229e-12
3.17137e-12
2.53069e-12
1.93446e-12
1.41087e-12
9.78689e-13
6.44709e-13
4.03856e-13
2.41994e-13
1.40469e-13
8.06882e-14
4.72682e-14
2.92236e-14
1.96041e-14
1.88694e-12
1.85036e-12
1.7784e-12
1.67354e-12
1.53968e-12
1.38219e-12
1.20792e-12
1.02498e-12
8.4222e-13
6.68428e-13
5.1134e-13
3.7666e-13
2.67357e-13
1.83493e-13
1.22642e-13
8.07787e-14
5.33174e-14
3.59838e-14
2.5325e-14
1.88461e-14
6.74118e-13
6.62637e-13
6.40012e-13
6.06942e-13
5.64518e-13
5.14257e-13
4.58102e-13
3.98374e-13
3.37652e-13
2.78571e-13
2.23567e-13
1.74609e-13
1.32977e-13
9.91565e-14
7.28819e-14
5.33061e-14
3.9252e-14
2.94624e-14
2.27891e-14
1.8295e-14
2.85487e-13
2.81362e-13
2.73216e-13
2.61267e-13
2.45854e-13
2.27454e-13
2.06681e-13
1.84281e-13
1.611e-13
1.38029e-13
1.15931e-13
9.55616e-14
7.74882e-14
6.20451e-14
4.932e-14
3.91834e-14
3.1348e-14
2.54418e-14
2.1075e-14
1.78888e-14
1.42078e-13
1.40401e-13
1.37081e-13
1.32192e-13
1.25851e-13
1.18221e-13
1.09519e-13
1.00008e-13
8.99976e-14
7.98212e-14
6.98179e-14
6.0303e-14
5.15409e-14
4.37229e-14
3.69551e-14
3.12596e-14
2.6587e-14
2.28373e-14
1.98822e-14
1.75863e-14
8.19772e-14
8.1215e-14
7.97033e-14
7.74692e-14
7.45556e-14
7.10241e-14
6.69567e-14
6.24566e-14
5.76462e-14
5.26628e-14
4.76511e-14
4.27534e-14
3.80988e-14
3.37931e-14
2.9912e-14
2.6498e-14
2.35612e-14
2.10851e-14
1.90337e-14
1.73595e-14
5.38126e-14
5.34311e-14
5.2673e-14
5.1549e-14
5.00758e-14
4.82784e-14
4.61902e-14
4.38546e-14
4.13242e-14
3.86599e-14
3.5928e-14
3.31971e-14
3.05333e-14
2.79958e-14
2.56329e-14
2.34797e-14
2.15569e-14
1.98718e-14
1.842e-14
1.71885e-14
3.92911e-14
3.90838e-14
3.86711e-14
3.80574e-14
3.72497e-14
3.62585e-14
3.50986e-14
3.37891e-14
3.23543e-14
3.08229e-14
2.92275e-14
2.7603e-14
2.59848e-14
2.44065e-14
2.28985e-14
2.14857e-14
2.01866e-14
1.90131e-14
1.79706e-14
1.70591e-14
3.11824e-14
3.10617e-14
3.08211e-14
3.04625e-14
2.99889e-14
2.94049e-14
2.87173e-14
2.79352e-14
2.70704e-14
2.61372e-14
2.51524e-14
2.41348e-14
2.31041e-14
2.20801e-14
2.10818e-14
2.01259e-14
1.92267e-14
1.83951e-14
1.76385e-14
1.6961e-14
2.63494e-14
2.62751e-14
2.61269e-14
2.59054e-14
2.5612e-14
2.5249e-14
2.48195e-14
2.4328e-14
2.37805e-14
2.31846e-14
2.25495e-14
2.18856e-14
2.12044e-14
2.05178e-14
1.98378e-14
1.91758e-14
1.85419e-14
1.79448e-14
1.73914e-14
1.68865e-14
2.33141e-14
2.32662e-14
2.31706e-14
2.30277e-14
2.28379e-14
2.26023e-14
2.23225e-14
2.20009e-14
2.16407e-14
2.1246e-14
2.08221e-14
2.03751e-14
1.99117e-14
1.94396e-14
1.89663e-14
1.84995e-14
1.80465e-14
1.76137e-14
1.72067e-14
1.68299e-14
2.13271e-14
2.12952e-14
2.12314e-14
2.11358e-14
2.10087e-14
2.08506e-14
2.06623e-14
2.04452e-14
2.02009e-14
1.9932e-14
1.96414e-14
1.9333e-14
1.90109e-14
1.86799e-14
1.83451e-14
1.80116e-14
1.76845e-14
1.73686e-14
1.70682e-14
1.6787e-14
1.99838e-14
1.99619e-14
1.9918e-14
1.98524e-14
1.9765e-14
1.96561e-14
1.95262e-14
1.9376e-14
1.92065e-14
1.90192e-14
1.8816e-14
1.85992e-14
1.83716e-14
1.81362e-14
1.78965e-14
1.76559e-14
1.74181e-14
1.71864e-14
1.69643e-14
1.67544e-14
1.90527e-14
1.90373e-14
1.90066e-14
1.89606e-14
1.88992e-14
1.88228e-14
1.87314e-14
1.86255e-14
1.85059e-14
1.83733e-14
1.82291e-14
1.80746e-14
1.79118e-14
1.77426e-14
1.75695e-14
1.73947e-14
1.7221e-14
1.70506e-14
1.68862e-14
1.67298e-14
1.83951e-14
1.83841e-14
1.83623e-14
1.83295e-14
1.82858e-14
1.82313e-14
1.81661e-14
1.80905e-14
1.80049e-14
1.791e-14
1.78065e-14
1.76953e-14
1.75778e-14
1.74554e-14
1.73295e-14
1.7202e-14
1.70747e-14
1.69492e-14
1.68275e-14
1.67111e-14
1.79241e-14
1.79162e-14
1.79004e-14
1.78768e-14
1.78454e-14
1.78061e-14
1.77591e-14
1.77046e-14
1.76429e-14
1.75743e-14
1.74994e-14
1.74189e-14
1.73336e-14
1.72445e-14
1.71527e-14
1.70594e-14
1.69659e-14
1.68735e-14
1.67835e-14
1.66971e-14
1.75832e-14
1.75775e-14
1.75661e-14
1.7549e-14
1.75261e-14
1.74976e-14
1.74635e-14
1.7424e-14
1.73792e-14
1.73293e-14
1.72749e-14
1.72163e-14
1.71542e-14
1.70891e-14
1.7022e-14
1.69537e-14
1.6885e-14
1.6817e-14
1.67505e-14
1.66865e-14
1.73349e-14
1.73307e-14
1.73224e-14
1.73099e-14
1.72932e-14
1.72725e-14
1.72476e-14
1.72188e-14
1.71861e-14
1.71498e-14
1.71101e-14
1.70673e-14
1.7022e-14
1.69744e-14
1.69253e-14
1.68753e-14
1.68249e-14
1.67749e-14
1.67259e-14
1.66786e-14
1.71531e-14
1.715e-14
1.71439e-14
1.71348e-14
1.71226e-14
1.71074e-14
1.70893e-14
1.70682e-14
1.70443e-14
1.70178e-14
1.69888e-14
1.69576e-14
1.69245e-14
1.68897e-14
1.68538e-14
1.68172e-14
1.67802e-14
1.67435e-14
1.67075e-14
1.66727e-14
1.70196e-14
1.70174e-14
1.70129e-14
1.70062e-14
1.69973e-14
1.69862e-14
1.69729e-14
1.69575e-14
1.69401e-14
1.69207e-14
1.68995e-14
1.68767e-14
1.68525e-14
1.68272e-14
1.68009e-14
1.67741e-14
1.67471e-14
1.67202e-14
1.66939e-14
1.66683e-14
1.69215e-14
1.69199e-14
1.69166e-14
1.69117e-14
1.69052e-14
1.68971e-14
1.68874e-14
1.68761e-14
1.68634e-14
1.68492e-14
1.68338e-14
1.68172e-14
1.67995e-14
1.6781e-14
1.67619e-14
1.67423e-14
1.67226e-14
1.6703e-14
1.66837e-14
1.6665e-14
1.68495e-14
1.68483e-14
1.68459e-14
1.68423e-14
1.68375e-14
1.68316e-14
1.68245e-14
1.68163e-14
1.6807e-14
1.67967e-14
1.67855e-14
1.67734e-14
1.67605e-14
1.67471e-14
1.67331e-14
1.67189e-14
1.67046e-14
1.66903e-14
1.66762e-14
1.66626e-14
1.67966e-14
1.67957e-14
1.6794e-14
1.67914e-14
1.67879e-14
1.67836e-14
1.67784e-14
1.67724e-14
1.67657e-14
1.67582e-14
1.675e-14
1.67412e-14
1.67319e-14
1.67221e-14
1.6712e-14
1.67017e-14
1.66913e-14
1.66809e-14
1.66707e-14
1.66608e-14
1.67579e-14
1.67572e-14
1.6756e-14
1.67541e-14
1.67515e-14
1.67484e-14
1.67446e-14
1.67403e-14
1.67354e-14
1.673e-14
1.6724e-14
1.67177e-14
1.67109e-14
1.67038e-14
1.66965e-14
1.66891e-14
1.66816e-14
1.66741e-14
1.66667e-14
1.66595e-14
1.67296e-14
1.67292e-14
1.67282e-14
1.67269e-14
1.6725e-14
1.67227e-14
1.672e-14
1.67169e-14
1.67133e-14
1.67094e-14
1.67051e-14
1.67005e-14
1.66956e-14
1.66905e-14
1.66853e-14
1.66799e-14
1.66745e-14
1.66691e-14
1.66637e-14
1.66586e-14
1.67091e-14
1.67087e-14
1.67081e-14
1.67071e-14
1.67057e-14
1.67041e-14
1.67021e-14
1.66998e-14
1.66973e-14
1.66944e-14
1.66914e-14
1.6688e-14
1.66845e-14
1.66809e-14
1.66771e-14
1.66732e-14
1.66693e-14
1.66654e-14
1.66616e-14
1.66579e-14
1.66942e-14
1.6694e-14
1.66935e-14
1.66927e-14
1.66918e-14
1.66906e-14
1.66892e-14
1.66875e-14
1.66857e-14
1.66836e-14
1.66814e-14
1.6679e-14
1.66765e-14
1.66739e-14
1.66712e-14
1.66684e-14
1.66656e-14
1.66628e-14
1.666e-14
1.66574e-14
1.66835e-14
1.66833e-14
1.6683e-14
1.66825e-14
1.66818e-14
1.66809e-14
1.66799e-14
1.66787e-14
1.66774e-14
1.66759e-14
1.66743e-14
1.66726e-14
1.66708e-14
1.66689e-14
1.66669e-14
1.66649e-14
1.66629e-14
1.66609e-14
1.66589e-14
1.6657e-14
1.66759e-14
1.66758e-14
1.66756e-14
1.66752e-14
1.66747e-14
1.66741e-14
1.66733e-14
1.66724e-14
1.66715e-14
1.66704e-14
1.66693e-14
1.6668e-14
1.66667e-14
1.66653e-14
1.66639e-14
1.66625e-14
1.6661e-14
1.66596e-14
1.66582e-14
1.66568e-14
1.66707e-14
1.66706e-14
1.66704e-14
1.66701e-14
1.66697e-14
1.66693e-14
1.66687e-14
1.66681e-14
1.66674e-14
1.66666e-14
1.66657e-14
1.66648e-14
1.66639e-14
1.66629e-14
1.66618e-14
1.66608e-14
1.66597e-14
1.66586e-14
1.66576e-14
1.66566e-14
1.66672e-14
1.66671e-14
1.66669e-14
1.66667e-14
1.66664e-14
1.66661e-14
1.66657e-14
1.66652e-14
1.66647e-14
1.66641e-14
1.66634e-14
1.66627e-14
1.6662e-14
1.66612e-14
1.66604e-14
1.66596e-14
1.66588e-14
1.6658e-14
1.66572e-14
1.66565e-14
1.6665e-14
1.6665e-14
1.66648e-14
1.66647e-14
1.66644e-14
1.66641e-14
1.66638e-14
1.66634e-14
1.6663e-14
1.66625e-14
1.6662e-14
1.66614e-14
1.66608e-14
1.66602e-14
1.66596e-14
1.66589e-14
1.66583e-14
1.66577e-14
1.6657e-14
1.66564e-14
1.6664e-14
1.66639e-14
1.66638e-14
1.66637e-14
1.66635e-14
1.66632e-14
1.66629e-14
1.66626e-14
1.66622e-14
1.66618e-14
1.66613e-14
1.66608e-14
1.66603e-14
1.66597e-14
1.66592e-14
1.66586e-14
1.6658e-14
1.66575e-14
1.66569e-14
1.66564e-14
)
;

boundaryField
{
    topWall
    {
        type            zeroGradient;
    }
    bottomWall
    {
        type            zeroGradient;
    }
    sideWallL
    {
        type            symmetry;
    }
    sideWallR
    {
        type            calculated;
        value           uniform 0;
    }
    frontAndBack
    {
        type            empty;
    }
}


// ************************************************************************* //
