/*--------------------------------*- C++ -*----------------------------------*\
  =========                 |
  \\      /  F ield         | OpenFOAM: The Open Source CFD Toolbox
   \\    /   O peration     | Website:  https://openfoam.org
    \\  /    A nd           | Version:  7
     \\/     M anipulation  |
\*---------------------------------------------------------------------------*/
FoamFile
{
    version     2.0;
    format      ascii;
    class       volScalarField;
    location    "32";
    object      T;
}
// * * * * * * * * * * * * * * * * * * * * * * * * * * * * * * * * * * * * * //

dimensions      [0 0 0 1 0 0 0];

internalField   nonuniform List<scalar> 
900
(
568.757
568.735
568.689
568.616
568.513
568.371
568.182
567.931
567.6
567.161
566.572
565.772
564.663
563.082
560.735
557.029
550.601
537.77
506.927
417.34
527.952
527.888
527.756
527.549
527.253
526.848
526.309
525.596
524.656
523.411
521.751
519.509
516.43
512.105
505.843
496.414
481.488
456.448
412.204
333.579
493.238
493.137
492.929
492.602
492.136
491.501
490.657
489.545
488.086
486.168
483.63
480.243
475.664
469.376
460.575
447.992
429.61
402.35
362.134
305.981
462.597
462.465
462.193
461.766
461.159
460.335
459.244
457.815
455.954
453.529
450.359
446.191
440.671
433.296
423.35
409.837
391.424
366.538
333.9
294.037
435.588
435.431
435.11
434.606
433.892
432.928
431.657
430.006
427.872
425.123
421.577
416.995
411.057
403.34
393.299
380.262
363.482
342.319
316.662
287.648
411.883
411.709
411.354
410.798
410.013
408.958
407.576
405.794
403.514
400.609
396.916
392.227
386.281
378.756
369.275
357.433
342.872
325.428
305.375
283.716
391.17
390.987
390.612
390.028
389.205
388.106
386.675
384.846
382.527
379.61
375.953
371.39
365.72
358.716
350.138
339.767
327.468
313.286
297.572
281.077
373.15
372.964
372.583
371.991
371.162
370.058
368.633
366.825
364.557
361.736
358.25
353.969
348.749
342.438
334.896
326.019
315.79
304.329
291.954
279.206
357.541
357.357
356.982
356.401
355.589
354.516
353.139
351.406
349.253
346.605
343.376
339.47
334.787
329.233
322.732
315.249
306.819
297.579
287.788
277.83
344.08
343.903
343.543
342.986
342.212
341.194
339.896
338.276
336.282
333.856
330.933
327.446
323.328
318.524
313
306.757
299.851
292.408
284.63
276.792
332.521
332.354
332.016
331.494
330.772
329.827
328.63
327.147
325.338
323.158
320.561
317.501
313.936
309.836
305.192
300.023
294.388
288.394
282.198
275.995
322.64
322.486
322.174
321.695
321.034
320.172
319.089
317.755
316.141
314.214
311.942
309.294
306.246
302.784
298.912
294.657
290.073
285.248
280.302
275.376
314.23
314.091
313.808
313.375
312.779
312.007
311.041
309.86
308.441
306.762
304.8
302.535
299.956
297.058
293.851
290.364
286.645
282.764
278.81
274.889
307.105
306.981
306.728
306.342
305.814
305.131
304.282
303.25
302.019
300.573
298.897
296.98
294.816
292.407
289.767
286.921
283.911
280.791
277.63
274.504
301.095
300.985
300.763
300.424
299.961
299.366
298.628
297.737
296.681
295.448
294.031
292.422
290.62
288.631
286.468
284.154
281.723
279.218
276.691
274.199
296.049
295.953
295.759
295.465
295.064
294.551
293.917
293.156
292.259
291.218
290.03
288.689
287.2
285.566
283.802
281.928
279.969
277.96
275.941
273.955
291.83
291.747
291.581
291.328
290.984
290.546
290.008
289.364
288.609
287.738
286.748
285.64
284.415
283.081
281.649
280.135
278.561
276.953
275.342
273.76
288.319
288.248
288.106
287.891
287.6
287.23
286.777
286.236
285.606
284.882
284.065
283.154
282.153
281.069
279.91
278.692
277.43
276.146
274.863
273.604
285.41
285.35
285.231
285.05
284.805
284.495
284.116
283.667
283.144
282.548
281.877
281.133
280.319
279.442
278.509
277.531
276.523
275.5
274.479
273.48
283.011
282.961
282.861
282.71
282.506
282.248
281.934
281.563
281.134
280.645
280.098
279.493
278.835
278.128
277.38
276.598
275.795
274.982
274.172
273.38
281.041
281
280.917
280.792
280.623
280.411
280.153
279.848
279.497
279.099
278.656
278.167
277.638
277.071
276.473
275.85
275.212
274.567
273.926
273.3
279.431
279.397
279.329
279.226
279.088
278.914
278.703
278.456
278.171
277.849
277.491
277.098
276.674
276.221
275.745
275.251
274.746
274.236
273.73
273.237
278.122
278.094
278.038
277.954
277.842
277.7
277.529
277.329
277.099
276.84
276.553
276.239
275.901
275.541
275.163
274.773
274.374
273.972
273.574
273.186
277.061
277.038
276.993
276.925
276.834
276.72
276.582
276.421
276.236
276.029
275.8
275.55
275.282
274.997
274.699
274.391
274.078
273.762
273.45
273.146
276.206
276.187
276.151
276.096
276.023
275.931
275.821
275.692
275.545
275.38
275.199
275.001
274.789
274.564
274.33
274.088
273.842
273.596
273.352
273.114
275.519
275.505
275.476
275.432
275.374
275.3
275.213
275.11
274.994
274.863
274.719
274.564
274.397
274.221
274.037
273.848
273.656
273.464
273.274
273.089
274.971
274.96
274.937
274.902
274.855
274.797
274.728
274.647
274.555
274.452
274.339
274.217
274.087
273.949
273.806
273.659
273.51
273.36
273.213
273.069
274.535
274.526
274.508
274.481
274.444
274.398
274.344
274.28
274.208
274.127
274.039
273.944
273.842
273.735
273.624
273.51
273.394
273.278
273.164
273.053
274.191
274.183
274.169
274.148
274.119
274.083
274.04
273.991
273.934
273.871
273.803
273.729
273.65
273.567
273.481
273.393
273.304
273.214
273.127
273.041
273.919
273.913
273.902
273.885
273.863
273.835
273.802
273.763
273.719
273.671
273.618
273.56
273.5
273.436
273.369
273.302
273.233
273.165
273.097
273.031
273.706
273.702
273.693
273.68
273.663
273.641
273.615
273.585
273.552
273.514
273.473
273.429
273.382
273.333
273.283
273.231
273.178
273.126
273.074
273.024
273.54
273.537
273.53
273.52
273.507
273.49
273.47
273.447
273.421
273.392
273.361
273.327
273.291
273.254
273.215
273.176
273.136
273.096
273.056
273.018
273.411
273.409
273.404
273.396
273.386
273.373
273.358
273.34
273.32
273.298
273.274
273.248
273.221
273.193
273.163
273.133
273.103
273.073
273.043
273.014
273.312
273.31
273.306
273.3
273.292
273.282
273.271
273.257
273.242
273.225
273.207
273.188
273.167
273.146
273.123
273.101
273.078
273.055
273.032
273.01
273.235
273.234
273.231
273.226
273.22
273.213
273.204
273.194
273.182
273.17
273.156
273.141
273.126
273.11
273.093
273.076
273.058
273.041
273.024
273.008
273.177
273.176
273.173
273.17
273.165
273.16
273.153
273.146
273.137
273.127
273.117
273.106
273.094
273.082
273.069
273.057
273.044
273.031
273.018
273.006
273.132
273.131
273.13
273.127
273.124
273.12
273.115
273.109
273.102
273.095
273.087
273.079
273.07
273.061
273.052
273.042
273.033
273.023
273.014
273.004
273.099
273.098
273.097
273.095
273.092
273.089
273.085
273.081
273.076
273.071
273.065
273.059
273.052
273.046
273.039
273.031
273.024
273.017
273.01
273.003
273.073
273.073
273.072
273.071
273.069
273.066
273.064
273.06
273.057
273.053
273.048
273.044
273.039
273.034
273.029
273.023
273.018
273.013
273.007
273.002
273.055
273.054
273.054
273.053
273.051
273.049
273.047
273.045
273.042
273.039
273.036
273.033
273.029
273.025
273.021
273.017
273.013
273.009
273.006
273.002
273.041
273.041
273.04
273.039
273.038
273.037
273.035
273.034
273.032
273.029
273.027
273.024
273.022
273.019
273.016
273.013
273.01
273.007
273.004
273.001
273.031
273.031
273.031
273.03
273.029
273.028
273.027
273.026
273.024
273.022
273.021
273.019
273.016
273.014
273.012
273.01
273.008
273.005
273.003
273.001
273.025
273.024
273.024
273.024
273.023
273.022
273.021
273.02
273.019
273.018
273.016
273.015
273.013
273.011
273.01
273.008
273.006
273.004
273.002
273.001
273.02
273.02
273.02
273.02
273.019
273.018
273.018
273.017
273.016
273.015
273.013
273.012
273.011
273.009
273.008
273.006
273.005
273.003
273.002
273.001
273.018
273.018
273.018
273.018
273.017
273.017
273.016
273.015
273.014
273.013
273.012
273.011
273.01
273.008
273.007
273.006
273.004
273.003
273.002
273.001
)
;

boundaryField
{
    topWall
    {
        type            zeroGradient;
    }
    bottomWall
    {
        type            codedFixedValue;
        value           uniform 593;
        name            heating;
        code            #{
            const scalar t = this->db().time().value();
            const scalar Ttemp = 273 + 10*t;
            operator==(Ttemp);
        #};
    }
    sideWallL
    {
        type            symmetry;
    }
    sideWallR
    {
        type            fixedValue;
        value           uniform 273;
    }
    frontAndBack
    {
        type            empty;
    }
}


// ************************************************************************* //
