/*--------------------------------*- C++ -*----------------------------------*\
  =========                 |
  \\      /  F ield         | OpenFOAM: The Open Source CFD Toolbox
   \\    /   O peration     | Website:  https://openfoam.org
    \\  /    A nd           | Version:  7
     \\/     M anipulation  |
\*---------------------------------------------------------------------------*/
FoamFile
{
    version     2.0;
    format      ascii;
    class       volScalarField;
    location    "24";
    object      gradTy;
}
// * * * * * * * * * * * * * * * * * * * * * * * * * * * * * * * * * * * * * //

dimensions      [0 -1 0 1 0 0 0];

internalField   nonuniform List<scalar> 
900
(
-178071
-178186
-178424
-178803
-179353
-180119
-181164
-182580
-184494
-187096
-190661
-195607
-202588
-212674
-227710
-251116
-289779
-359068
-497248
-809483
-154773
-154877
-155094
-155438
-155937
-156628
-157566
-158827
-160518
-162789
-165853
-170016
-175725
-183630
-194673
-210125
-231251
-257128
-274329
-213116
-134208
-134298
-134483
-134776
-135198
-135778
-136556
-137587
-138943
-140720
-143043
-146066
-149970
-154923
-160967
-167671
-173206
-172003
-149658
-76238.7
-116034
-116105
-116252
-116483
-116811
-117255
-117840
-118595
-119558
-120766
-122257
-124048
-126100
-128242
-130004
-130290
-126758
-114868
-87121
-35375.3
-99964.4
-100016
-100120
-100283
-100509
-100809
-101189
-101659
-102221
-102869
-103569
-104245
-104727
-104686
-103505
-100086
-92617.4
-78440.8
-54549.5
-19849.5
-85776.3
-85807.1
-85869.4
-85963.6
-86090.2
-86248.1
-86433.3
-86635.7
-86834.1
-86988.4
-87025.2
-86816.7
-86146.3
-84658
-81788.8
-76696.2
-68230.8
-55079.1
-36310.2
-12556.1
-73279
-73290.9
-73313.7
-73344.8
-73379.9
-73410.8
-73424.2
-73397.5
-73294.5
-73056.9
-72593.4
-71763
-70352.9
-68051.9
-64424.6
-58905.3
-50847.4
-39690.8
-25313.9
-8540.6
-62306.9
-62302.1
-62290.5
-62267.3
-62224.6
-62149.9
-62023.7
-61816.8
-61485.6
-60966.2
-60166
-58953.2
-57145.4
-54499.7
-50711.2
-45432
-38332.5
-29224.4
-18250.6
-6078.15
-52712.1
-52693.7
-52654.2
-52587.4
-52483.6
-52327.5
-52097.2
-51760.9
-51274.4
-50575.7
-49581.1
-48178.6
-46224.8
-43543.6
-39935.2
-35200.9
-29191.5
-21885
-13478.7
-4455.3
-44360.5
-44331.8
-44271.3
-44172.5
-44024.5
-43811.6
-43511.5
-43093.4
-42515.7
-41723.9
-40647
-39196.2
-37264.9
-34732.3
-31474.5
-27386
-22413.6
-16600
-10126.9
-3331.56
-37128.2
-37092.6
-37018.1
-36898.1
-36722.1
-36474.8
-36135.2
-35675.5
-35059.3
-34240.7
-33163.1
-31759.1
-29952.9
-27665
-24822.7
-21375.7
-17317.8
-12710.6
-7701.79
-2525.65
-30900.3
-30860.6
-30778.2
-30646.8
-30456.7
-30194
-29840
-29370.6
-28755.5
-27957.9
-26934
-25634.8
-24008.1
-22003.8
-19581.7
-16722.6
-13441
-9797.82
-5907.34
-1932.8
-25568.7
-25527.5
-25442.4
-25307.7
-25114.9
-24851.8
-24502.4
-24046.9
-23460.8
-22715.4
-21778.1
-20614.2
-19188.9
-17471.9
-15443
-13099.4
-10462.9
-7586.63
-4556.95
-1488.47
-21032.6
-20991.9
-20908.1
-20776.5
-20589.5
-20337.1
-20006.1
-19580.4
-19040.9
-18366
-17531.9
-16514.6
-15291.7
-13845.9
-12168.7
-10265
-8157.77
-5890.59
-3527.88
-1150.85
-17197.7
-17159
-17079.7
-16955.5
-16780.5
-16546.3
-16242.4
-15856.1
-15373
-14776.9
-14051
-13179.2
-12147.6
-10946.8
-9574.9
-8040.22
-6363.6
-4579.71
-2736.46
-891.77
-13976.9
-13941.2
-13868.1
-13754.4
-13595.1
-13383.6
-13111.7
-12769.6
-12346.5
-11830.7
-11210.6
-10475.5
-9617.12
-8631.17
-7519.13
-6290.01
-4961.63
-3561.07
-2123.83
-691.559
-11289.6
-11257.5
-11191.9
-11090.3
-10948.7
-10762
-10523.8
-10226.9
-9863.25
-9424.6
-8903.02
-8291.69
-7585.96
-6784.42
-5890.13
-4911.6
-3863.51
-2766.73
-1647.56
-536.116
-9062.5
-9034.22
-8976.64
-8887.7
-8764.37
-8602.7
-8397.94
-8144.7
-7837.21
-7469.71
-7036.9
-6534.58
-5960.38
-5314.5
-4600.49
-3825.87
-3002.42
-2146.08
-1276.35
-415.091
-7229.3
-7204.87
-7155.23
-7078.79
-6973.26
-6835.66
-6662.47
-6449.77
-6193.47
-5889.61
-5534.76
-5126.43
-4663.63
-4147.39
-3581.18
-2971.35
-2327.19
-1660.83
-986.706
-320.74
-5730.61
-5709.87
-5667.77
-5603.14
-5514.26
-5398.91
-5254.54
-5078.33
-4867.43
-4619.17
-4331.38
-4002.7
-3632.93
-3223.42
-2777.33
-2299.84
-1798.21
-1281.61
-760.722
-247.181
-4513.81
-4496.46
-4461.29
-4407.45
-4333.65
-4238.29
-4119.51
-3975.34
-3803.82
-3603.19
-3372.13
-3109.95
-2816.92
-2494.42
-2145.17
-1773.35
-1384.54
-985.655
-584.6
-189.887
-3532.69
-3518.37
-3489.4
-3445.14
-3384.66
-3306.81
-3210.27
-3093.67
-2955.68
-2795.17
-2611.37
-2404.04
-2173.62
-1921.41
-1649.68
-1361.73
-1061.83
-755.177
-447.604
-145.344
-2747.07
-2735.4
-2711.84
-2675.9
-2626.94
-2564.12
-2486.53
-2393.23
-2283.34
-2156.15
-2011.24
-1848.61
-1668.78
-1472.88
-1262.77
-1041.01
-810.863
-576.195
-341.322
-110.803
-2122.36
-2112.98
-2094.03
-2065.19
-2026
-1975.87
-1914.16
-1840.26
-1753.57
-1653.69
-1540.41
-1413.85
-1274.51
-1123.37
-961.905
-792.086
-616.382
-437.672
-259.134
-84.1025
-1629.08
-1621.61
-1606.54
-1583.65
-1552.61
-1513.01
-1464.43
-1406.45
-1338.69
-1260.93
-1173.09
-1075.35
-968.159
-852.326
-729.003
-599.706
-466.286
-330.878
-195.818
-63.5399
-1242.29
-1236.4
-1224.55
-1206.57
-1182.23
-1151.26
-1113.37
-1068.29
-1015.8
-955.759
-888.184
-813.257
-731.379
-643.189
-549.583
-451.712
-350.958
-248.898
-147.244
-47.7695
-941.121
-936.534
-927.303
-913.315
-894.415
-870.422
-841.143
-806.404
-766.073
-720.093
-668.507
-611.491
-549.379
-482.676
-412.068
-338.423
-262.766
-186.258
-110.149
-35.7293
-708.272
-704.731
-697.609
-686.83
-672.291
-653.869
-631.441
-604.898
-574.167
-539.231
-500.148
-457.075
-410.281
-360.161
-307.235
-252.151
-195.667
-138.634
-81.9603
-26.5816
-529.508
-526.8
-521.356
-513.126
-502.041
-488.02
-470.987
-450.874
-427.646
-401.305
-371.915
-339.607
-304.595
-267.182
-227.76
-186.81
-144.888
-102.615
-60.6493
-19.6674
-393.235
-391.182
-387.058
-380.829
-372.451
-361.871
-349.042
-333.925
-316.504
-296.795
-274.856
-250.794
-224.776
-197.032
-167.856
-137.6
-106.672
-75.5217
-44.6255
-14.4695
-290.086
-288.543
-285.446
-280.773
-274.493
-266.576
-256.992
-245.72
-232.755
-218.119
-201.86
-184.065
-164.863
-144.425
-122.969
-100.754
-78.0757
-55.2584
-32.6449
-10.5837
-212.562
-211.412
-209.106
-205.628
-200.961
-195.085
-187.981
-179.642
-170.067
-159.278
-147.316
-134.248
-120.172
-105.216
-89.5398
-73.3312
-56.8041
-40.1918
-23.7394
-7.69578
-154.708
-153.859
-152.156
-149.59
-146.149
-141.822
-136.599
-130.475
-123.458
-115.563
-106.825
-97.2955
-87.0477
-76.176
-64.7966
-53.0457
-41.0767
-29.0563
-17.1591
-5.56214
-111.84
-111.218
-109.97
-108.092
-105.575
-102.414
-98.603
-94.1418
-89.0363
-83.3016
-76.9642
-70.0636
-62.6538
-54.8038
-46.5976
-38.1332
-29.52
-20.8766
-12.3267
-3.99539
-80.2994
-79.8471
-78.9406
-77.5765
-75.7506
-73.4592
-70.7
-67.4741
-63.7873
-59.652
-55.0886
-50.1266
-44.8056
-39.1756
-33.297
-27.2396
-21.0812
-14.9055
-8.79977
-2.85203
-57.2557
-56.9295
-56.2761
-55.2934
-53.979
-52.331
-50.3486
-48.0336
-45.3911
-42.4311
-39.1687
-35.6259
-31.8314
-27.8212
-23.6383
-19.3322
-14.9578
-10.5739
-6.24172
-2.02283
-40.5353
-40.3021
-39.8349
-39.1326
-38.1939
-37.018
-35.6048
-33.9563
-32.0767
-29.9736
-27.6585
-25.1473
-22.4606
-19.6243
-16.6686
-13.6285
-10.5423
-7.45119
-4.39788
-1.4252
-28.4828
-28.3173
-27.9861
-27.4884
-26.8236
-25.9914
-24.9922
-23.8277
-22.5013
-21.0188
-19.3886
-17.6222
-15.7343
-13.743
-11.6699
-9.53906
-7.37741
-5.21347
-3.07679
-0.997027
-19.8461
-19.7299
-19.4972
-19.1478
-18.6813
-18.0976
-17.3975
-16.5822
-15.6544
-14.6185
-13.4804
-12.2484
-10.9329
-9.5466
-8.10438
-6.62312
-5.12129
-3.6186
-2.13536
-0.691925
-13.6849
-13.6041
-13.4425
-13.1999
-12.8761
-12.4713
-11.9861
-11.4215
-10.7795
-10.0633
-9.27725
-8.42701
-7.51989
-6.56469
-5.57167
-4.5524
-3.51953
-2.48651
-1.46718
-0.475393
-9.29535
-9.24013
-9.12965
-8.96383
-8.74267
-8.46632
-8.13523
-7.75028
-7.31292
-6.82535
-6.2906
-5.71265
-5.09649
-4.44812
-3.77449
-3.08344
-2.38351
-1.68373
-0.993418
-0.321875
-6.15174
-6.11499
-6.04147
-5.93115
-5.78408
-5.60039
-5.38044
-5.12485
-4.83465
-4.51135
-4.15699
-3.77426
-3.36648
-2.93763
-2.49232
-2.03571
-1.57341
-1.11136
-0.655672
-0.212436
-3.85851
-3.83536
-3.78904
-3.71956
-3.62695
-3.51134
-3.37295
-3.21223
-3.02983
-2.82674
-2.60425
-2.36407
-2.10831
-1.83945
-1.56039
-1.27436
-0.984859
-0.695591
-0.410358
-0.132952
-2.11245
-2.09973
-2.07429
-2.03614
-1.9853
-1.92185
-1.84592
-1.75777
-1.65777
-1.54646
-1.42456
-1.29303
-1.153
-1.00586
-0.853176
-0.696722
-0.538407
-0.380248
-0.224316
-0.0726748
-0.671503
-0.667453
-0.659354
-0.647209
-0.631025
-0.610829
-0.586667
-0.558618
-0.526805
-0.491401
-0.452639
-0.410819
-0.366308
-0.319542
-0.271025
-0.221315
-0.171019
-0.120778
-0.0712481
-0.0230831
)
;

boundaryField
{
    topWall
    {
        type            calculated;
        value           uniform 0;
    }
    bottomWall
    {
        type            calculated;
        value           nonuniform List<scalar> 
20
(
-190449
-190567
-190813
-191204
-191774
-192566
-193650
-195120
-197113
-199829
-203566
-208780
-216197
-227042
-243531
-270093
-316826
-410745
-636949
-1.29908e+06
)
;
    }
    sideWallL
    {
        type            symmetry;
    }
    sideWallR
    {
        type            calculated;
        value           nonuniform List<scalar> 
45
(
-809483
-213116
-76238.7
-35375.3
-19849.5
-12556.1
-8540.6
-6078.15
-4455.3
-3331.56
-2525.65
-1932.8
-1488.47
-1150.85
-891.77
-691.559
-536.116
-415.091
-320.74
-247.181
-189.887
-145.344
-110.803
-84.1025
-63.5399
-47.7695
-35.7293
-26.5816
-19.6674
-14.4695
-10.5837
-7.69578
-5.56214
-3.99539
-2.85203
-2.02283
-1.4252
-0.997027
-0.691925
-0.475393
-0.321875
-0.212436
-0.132952
-0.0726748
-0.0230831
)
;
    }
    frontAndBack
    {
        type            empty;
    }
}


// ************************************************************************* //
