/*--------------------------------*- C++ -*----------------------------------*\
  =========                 |
  \\      /  F ield         | OpenFOAM: The Open Source CFD Toolbox
   \\    /   O peration     | Website:  https://openfoam.org
    \\  /    A nd           | Version:  7
     \\/     M anipulation  |
\*---------------------------------------------------------------------------*/
FoamFile
{
    version     2.0;
    format      ascii;
    class       volScalarField;
    location    "24";
    object      gradTx;
}
// * * * * * * * * * * * * * * * * * * * * * * * * * * * * * * * * * * * * * //

dimensions      [0 -1 0 1 0 0 0];

internalField   nonuniform List<scalar> 
900
(
-29.5386
-90.8906
-159.293
-240.235
-340.522
-469.101
-638.288
-865.688
-1177.37
-1613.35
-2237.62
-3157.68
-4565.65
-6833.65
-10762.7
-18323.5
-35163
-80030.9
-222085
-715992
-84.9177
-261.215
-457.524
-689.368
-975.893
-1342.1
-1822.13
-2464.29
-3339.17
-4553.32
-6273.23
-8769.32
-12500.9
-18288.5
-27679.4
-43745.5
-72789.1
-127438
-228330
-377277
-133.938
-411.78
-720.437
-1083.65
-1530.42
-2098.18
-2837.26
-3817.59
-5139.09
-6948.2
-9465.12
-13029.6
-18178.9
-25781.6
-37257.9
-54901.7
-82166
-123109
-178073
-228546
-174.488
-536.027
-936.338
-1405
-1977.7
-2699.67
-3630.51
-4850.96
-6472.85
-8653.82
-11619.5
-15696.1
-21357.4
-29285.2
-40427.4
-55985.1
-77120.7
-103890
-132567
-151381
-205.227
-629.847
-1098.08
-1642.8
-2303.01
-3127.15
-4177.39
-5535.39
-7310.04
-9647.93
-12746.9
-16872.2
-22372.7
-29686
-39306.3
-51655.3
-66743.5
-83472.1
-98581
-106050
-225.669
-691.813
-1203.4
-1794.25
-2503.69
-3379.4
-4480.79
-5883.12
-7682.51
-10001.7
-12995.4
-16854
-21799.2
-28062.7
-35826.9
-45097.9
-55475.6
-65822
-73975.3
-76981.6
-236.125
-722.986
-1254.56
-1863.61
-2587.48
-3470.24
-4564.95
-5936.24
-7662.75
-9838.96
-12575.2
-15993.3
-20214
-25328.5
-31344.4
-38097.3
-45126.4
-51551.5
-56058
-57183.4
-237.552
-726.426
-1257.3
-1860.46
-2569.71
-3423.73
-4467.49
-5753.4
-7341.85
-9300.56
-11701.5
-14613.5
-18088.1
-22134.4
-26680.3
-31520.7
-36261
-40288.5
-42825.1
-43127.1
-231.356
-706.554
-1219.71
-1797.76
-2470.08
-3269.28
-4231.8
-5398.16
-6812.23
-8519.36
-10562.1
-12972.7
-15760.6
-18894.2
-22276.6
-25718.6
-28918.9
-31469.7
-32911.7
-32854.7
-219.177
-668.485
-1150.99
-1689.86
-2309.8
-3037.33
-3900.93
-4930.6
-6156.64
-7607.25
-9304.39
-11257.3
-13453.1
-15844.8
-18337.6
-20777
-22945.1
-24575.7
-25395.5
-25193.1
-202.702
-617.446
-1060.4
-1550.94
-2109.24
-2756.25
-3513.51
-4402.4
-5442.76
-6650.59
-8034.48
-9590.67
-11296.6
-13103.8
-14930.4
-16657.7
-18132.9
-19183
-19643.2
-19396.2
-183.519
-558.321
-956.497
-1393.86
-1886.47
-2450.45
-3101.63
-3854.7
-4721.9
-5711.05
-6822.78
-8047.03
-9358.92
-10714.6
-12048.4
-13272.1
-14280
-14959.7
-15210.5
-14965.7
-163.016
-495.359
-846.641
-1229.48
-1656.38
-2139.49
-2690.12
-3317.99
-4030.08
-4829.09
-5711.4
-6664.72
-7665.62
-8677.42
-9649.2
-10517
-11208.1
-11649.3
-11778.2
-11556
-142.33
-432.018
-736.745
-1066.38
-1430.48
-1838
-2296.81
-2813.1
-3390.37
-4028.36
-4721.56
-5457.77
-6216.64
-6968.8
-7675.84
-8291.92
-8767.24
-9053.77
-9112.37
-8920.26
-122.331
-370.925
-631.246
-910.876
-1216.99
-1556.05
-1933.43
-2352.84
-2815.64
-3320.02
-3860
-4424.59
-4997
-5554.39
-6068.29
-6506.08
-6833.69
-7019.43
-7038.49
-6877.31
-103.634
-313.924
-533.206
-767.212
-1021.23
-1299.87
-1606.67
-1943.72
-2311.13
-2706.41
-3123.92
-3554.31
-3984.18
-4396.12
-4769.3
-5080.61
-5306.73
-5426.63
-5424.43
-5292.03
-86.627
-262.169
-444.5
-637.887
-846.178
-1072.58
-1319.38
-1587.62
-1876.73
-2184.12
-2504.8
-2831.14
-3152.69
-3456.41
-3727.13
-3948.58
-4104.75
-4181.63
-4168.97
-4061.92
-71.5133
-216.247
-366.033
-524.004
-692.916
-874.969
-1071.58
-1283.17
-1508.84
-1746.18
-1991.01
-2237.25
-2476.91
-2700.29
-2896.47
-3054
-3161.86
-3210.68
-3193.82
-3108.35
-58.3497
-176.306
-297.972
-425.615
-561.183
-706.158
-861.384
-1026.9
-1201.74
-1383.8
-1569.67
-1754.62
-1932.61
-2096.52
-2238.5
-2350.5
-2424.96
-2455.56
-2437.98
-2370.48
-47.0867
-142.173
-239.949
-342.034
-449.786
-564.183
-685.696
-814.166
-948.68
-1087.47
-1227.83
-1366.13
-1497.86
-1617.84
-1720.44
-1800.01
-1851.35
-1870.2
-1853.73
-1800.91
-37.6022
-113.462
-191.247
-272.1
-356.956
-446.443
-540.801
-639.784
-742.58
-847.752
-953.198
-1056.17
-1153.33
-1240.92
-1314.92
-1371.39
-1406.73
-1418.07
-1403.55
-1362.57
-29.73
-89.6548
-150.941
-214.387
-280.623
-350.047
-422.754
-498.477
-576.529
-655.768
-734.585
-810.92
-882.331
-946.093
-999.364
-1039.38
-1063.66
-1070.26
-1057.96
-1026.42
-23.2823
-70.1728
-118.015
-167.359
-218.624
-272.054
-327.662
-385.193
-444.085
-503.449
-562.066
-618.411
-670.702
-716.983
-755.241
-783.542
-800.182
-803.843
-793.721
-769.627
-18.0662
-54.4243
-91.4402
-129.487
-168.841
-209.644
-251.867
-295.284
-339.446
-383.671
-427.048
-468.455
-506.599
-540.086
-567.491
-587.467
-598.84
-600.716
-592.568
-574.295
-13.8947
-41.8388
-70.2321
-99.3251
-129.295
-160.221
-192.054
-224.604
-257.519
-290.283
-322.221
-352.513
-380.23
-404.377
-423.953
-438.019
-445.768
-446.595
-440.151
-426.39
-10.5948
-31.8891
-53.4866
-75.5531
-98.2003
-121.467
-145.301
-169.545
-193.929
-218.068
-241.463
-263.523
-283.58
-300.93
-314.871
-324.75
-330.012
-330.248
-325.229
-314.937
-8.0112
-24.1037
-40.3983
-57.0031
-73.9867
-91.3647
-109.087
-127.028
-144.984
-162.669
-179.719
-195.708
-210.161
-222.581
-232.476
-239.394
-242.955
-242.881
-239.023
-231.377
-6.00829
-18.0712
-30.2671
-42.6654
-55.3069
-68.1941
-81.2826
-94.4752
-107.618
-120.501
-132.862
-144.395
-154.764
-163.62
-170.618
-175.448
-177.848
-177.631
-174.7
-169.058
-4.47022
-13.4409
-22.4979
-31.685
-41.0253
-50.5149
-60.1164
-69.755
-79.317
-88.6492
-97.5632
-105.842
-113.247
-119.534
-124.466
-127.826
-129.438
-129.173
-126.97
-122.835
-3.29986
-9.91902
-16.5934
-23.3501
-30.2013
-37.1403
-44.1366
-51.1339
-58.0486
-64.77
-71.1637
-77.0758
-82.3396
-86.7846
-90.2461
-92.576
-93.6531
-93.3925
-91.7528
-88.7414
-2.41718
-7.26384
-12.1453
-17.0777
-22.0671
-27.1059
-32.1701
-37.2175
-42.1874
-47.0006
-51.5615
-55.7619
-59.4854
-62.6138
-65.0334
-66.6428
-67.3596
-67.1269
-65.9181
-63.7397
-1.75718
-5.27921
-8.82274
-12.3972
-16.0049
-19.6386
-23.2799
-26.8977
-30.448
-33.8746
-37.11
-40.0786
-42.6996
-44.891
-46.5751
-47.6824
-48.1573
-47.9616
-47.0782
-45.5128
-1.26784
-3.8082
-6.36157
-8.93321
-11.5234
-14.126
-16.7269
-19.3033
-21.824
-24.2491
-26.5314
-28.6182
-30.4536
-31.9814
-33.1483
-33.9071
-34.2202
-34.0622
-33.4221
-32.3046
-0.908012
-2.72683
-4.55333
-6.39025
-8.23696
-10.0883
-11.9337
-13.7569
-15.5356
-17.2417
-18.8425
-20.3014
-21.5801
-22.6399
-23.4447
-23.9625
-24.1679
-24.0441
-23.5841
-22.7915
-0.645571
-1.93834
-3.23548
-4.53831
-5.84579
-7.15382
-8.45466
-9.7366
-10.9839
-12.1771
-13.2934
-14.3077
-15.1938
-15.9253
-16.4777
-16.8295
-16.9636
-16.8689
-16.5409
-15.9825
-0.455696
-1.368
-2.28269
-3.20027
-4.11965
-5.03764
-5.94862
-6.84426
-7.71358
-8.54306
-9.31704
-10.0184
-10.6291
-11.1314
-11.5088
-11.7466
-11.8337
-11.7627
-11.5306
-11.1397
-0.319429
-0.95877
-1.59933
-2.2412
-2.88335
-3.5234
-4.15729
-4.77916
-5.38137
-5.95462
-6.4882
-6.97042
-7.38912
-7.73231
-7.98881
-8.14896
-8.20523
-8.15276
-7.98981
-7.71792
-0.222437
-0.667548
-1.11322
-1.55933
-2.00502
-2.44851
-2.88692
-3.31614
-3.73092
-4.12486
-4.4907
-4.82051
-5.1061
-5.3394
-5.51295
-5.6203
-5.65646
-5.61827
-5.50462
-5.31664
-0.154004
-0.462112
-0.770419
-1.07873
-1.38635
-1.69198
-1.99357
-2.28829
-2.57252
-2.84191
-3.09154
-3.31606
-3.50998
-3.66789
-3.78483
-3.8565
-3.87964
-3.85215
-3.77337
-3.6441
-0.106204
-0.318639
-0.53109
-0.743344
-0.954869
-1.16472
-1.37145
-1.57311
-1.76722
-1.95084
-2.12063
-2.27301
-2.4043
-2.51088
-2.58947
-2.63721
-2.65195
-2.63233
-2.57794
-2.48936
-0.0732508
-0.219744
-0.366168
-0.512327
-0.657813
-0.801943
-0.943709
-1.08176
-1.2144
-1.33963
-1.45521
-1.5587
-1.64766
-1.71967
-1.77253
-1.80437
-1.81375
-1.79979
-1.76225
-1.70153
-0.0509879
-0.152939
-0.254788
-0.356366
-0.457361
-0.557278
-0.655405
-0.7508
-0.842295
-0.928518
-1.00794
-1.07891
-1.13976
-1.18889
-1.22479
-1.24622
-1.25223
-1.24224
-1.21609
-1.17407
-0.0365009
-0.109473
-0.182333
-0.25494
-0.327051
-0.398298
-0.468164
-0.535975
-0.600901
-0.661975
-0.718121
-0.768195
-0.811033
-0.845512
-0.870607
-0.885453
-0.889401
-0.882057
-0.863326
-0.83342
-0.0278327
-0.0834667
-0.138991
-0.19428
-0.24914
-0.303278
-0.356296
-0.40768
-0.456802
-0.502935
-0.545273
-0.582964
-0.615141
-0.640972
-0.6597
-0.67069
-0.673463
-0.667738
-0.653448
-0.630761
-0.0237834
-0.0713185
-0.118746
-0.165951
-0.21276
-0.258919
-0.304085
-0.347818
-0.389585
-0.428769
-0.464691
-0.496632
-0.523864
-0.545689
-0.561473
-0.570684
-0.572927
-0.567967
-0.555753
-0.536429
)
;

boundaryField
{
    topWall
    {
        type            calculated;
        value           nonuniform List<scalar> 
20
(
-0.0237834
-0.0713185
-0.118746
-0.165951
-0.21276
-0.258919
-0.304085
-0.347818
-0.389585
-0.428769
-0.464691
-0.496632
-0.523864
-0.545689
-0.561473
-0.570684
-0.572927
-0.567967
-0.555753
-0.536429
)
;
    }
    bottomWall
    {
        type            calculated;
        value           nonuniform List<scalar> 
20
(
-29.5386
-90.8906
-159.293
-240.235
-340.522
-469.101
-638.288
-865.688
-1177.37
-1613.35
-2237.62
-3157.68
-4565.65
-6833.65
-10762.7
-18323.5
-35163
-80030.9
-222085
-715992
)
;
    }
    sideWallL
    {
        type            symmetry;
    }
    sideWallR
    {
        type            calculated;
        value           nonuniform List<scalar> 
45
(
-1.10092e+06
-461153
-248450
-156198
-106949
-76800
-56724.3
-42637.6
-32411.6
-24816.4
-19085.4
-14713.8
-11354.2
-8759.9
-6750.8
-5192.82
-3984.56
-3048.36
-2324.2
-1765.4
-1335.48
-1005.85
-754.104
-562.643
-417.693
-308.483
-226.616
-165.566
-120.289
-86.8968
-62.4112
-44.5618
-31.6281
-22.3133
-15.6465
-10.9051
-7.55515
-5.20436
-3.56704
-2.43666
-1.66546
-1.14916
-0.815719
-0.617352
-0.52502
)
;
    }
    frontAndBack
    {
        type            empty;
    }
}


// ************************************************************************* //
