/*--------------------------------*- C++ -*----------------------------------*\
  =========                 |
  \\      /  F ield         | OpenFOAM: The Open Source CFD Toolbox
   \\    /   O peration     | Website:  https://openfoam.org
    \\  /    A nd           | Version:  7
     \\/     M anipulation  |
\*---------------------------------------------------------------------------*/
FoamFile
{
    version     2.0;
    format      ascii;
    class       volScalarField;
    location    "24";
    object      rhoc;
}
// * * * * * * * * * * * * * * * * * * * * * * * * * * * * * * * * * * * * * //

dimensions      [1 -3 0 0 0 0 0];

internalField   nonuniform List<scalar> 
900
(
7.85122e-10
7.84026e-10
7.81751e-10
7.7812e-10
7.72851e-10
7.65533e-10
7.55586e-10
7.42215e-10
7.24339e-10
7.00502e-10
6.68759e-10
6.26552e-10
5.70623e-10
4.97103e-10
4.02192e-10
2.84647e-10
1.53232e-10
4.2465e-11
1.56362e-12
1.29749e-17
7.23946e-12
7.20626e-12
7.13767e-12
7.02923e-12
6.87407e-12
6.66277e-12
6.38326e-12
6.02112e-12
5.56055e-12
4.98662e-12
4.29003e-12
3.47546e-12
2.57451e-12
1.66109e-12
8.5738e-13
3.0195e-13
5.25565e-14
2.21052e-15
3.90259e-18
2.94225e-24
7.24727e-14
7.18808e-14
7.06655e-14
6.87653e-14
6.60908e-14
6.25313e-14
5.79686e-14
5.23018e-14
4.54913e-14
3.76243e-14
2.90019e-14
2.02205e-14
1.21781e-14
5.89003e-15
2.02911e-15
4.05507e-16
3.26296e-17
5.41844e-19
5.54902e-22
6.87139e-27
8.3359e-16
8.23696e-16
8.03521e-16
7.72347e-16
7.29236e-16
6.73249e-16
6.03815e-16
5.2128e-16
4.2765e-16
3.27387e-16
2.27883e-16
1.38896e-16
7.01253e-17
2.6977e-17
6.95829e-18
9.86739e-19
5.65372e-20
8.25735e-22
1.71518e-24
4.8801e-28
1.16394e-17
1.14603e-17
1.10977e-17
1.0544e-17
9.7913e-18
8.83695e-18
7.69038e-18
6.38272e-18
4.9762e-18
3.56892e-18
2.28723e-18
1.2577e-18
5.60388e-19
1.86575e-19
4.13865e-20
5.21182e-21
3.00939e-22
6.20468e-24
3.88416e-26
1.27813e-28
2.07497e-19
2.03676e-19
1.95987e-19
1.84371e-19
1.6883e-19
1.49541e-19
1.27002e-19
1.02191e-19
7.66553e-20
5.24521e-20
3.17968e-20
1.64197e-20
6.85347e-21
2.15668e-21
4.67483e-22
6.24204e-23
4.5376e-24
1.6329e-25
3.10809e-27
5.95477e-29
4.93255e-21
4.8304e-21
4.62593e-21
4.31981e-21
3.91553e-21
3.42233e-21
2.85853e-21
2.2543e-21
1.65201e-21
1.1018e-21
6.50963e-22
3.29089e-22
1.36248e-22
4.37679e-23
1.02395e-23
1.63135e-24
1.67671e-25
1.11422e-26
5.65639e-28
3.71661e-29
1.61859e-22
1.58281e-22
1.51149e-22
1.40544e-22
1.26669e-22
1.09948e-22
9.11143e-23
7.12703e-23
5.18537e-23
3.44445e-23
2.04106e-23
1.04875e-23
4.51819e-24
1.5713e-24
4.24272e-25
8.61623e-26
1.30718e-26
1.56597e-27
1.78226e-28
2.73521e-29
7.51416e-24
7.34497e-24
7.00854e-24
6.51033e-24
5.86227e-24
5.08652e-24
4.21914e-24
3.31175e-24
2.42878e-24
1.63848e-24
9.98013e-25
5.37204e-25
2.49586e-25
9.77554e-26
3.16628e-26
8.42676e-27
1.88349e-27
3.81121e-28
8.12916e-29
2.2244e-29
5.00746e-25
4.89747e-25
4.67903e-25
4.35608e-25
3.93679e-25
3.43567e-25
2.87562e-25
2.28863e-25
1.71403e-25
1.19327e-25
7.61552e-26
4.38962e-26
2.252e-26
1.01619e-26
4.01421e-27
1.40155e-27
4.47572e-28
1.40093e-28
4.75471e-29
1.92808e-29
4.81782e-26
4.71894e-26
4.52252e-26
4.23196e-26
3.85416e-26
3.40129e-26
2.89238e-26
2.35399e-26
1.81896e-26
1.32258e-26
8.96374e-27
5.61108e-27
3.22026e-27
1.68894e-27
8.13058e-28
3.6528e-28
1.58321e-28
6.95974e-29
3.28601e-29
1.74336e-29
6.68606e-27
6.56357e-27
6.31991e-27
5.95857e-27
5.48676e-27
4.91745e-27
4.27122e-27
3.5773e-27
2.87271e-27
2.19873e-27
1.59481e-27
1.09119e-27
7.02694e-28
4.26696e-28
2.46305e-28
1.37364e-28
7.58736e-29
4.2801e-29
2.54105e-29
1.62242e-29
1.32926e-27
1.30859e-27
1.2674e-27
1.20607e-27
1.12549e-27
1.02738e-27
9.14542e-28
7.91146e-28
6.6266e-28
5.35504e-28
4.16287e-28
3.1079e-28
2.22953e-28
1.54254e-28
1.03729e-28
6.86246e-29
4.53784e-29
3.05186e-29
2.12086e-29
1.54047e-29
3.72559e-28
3.67905e-28
3.58603e-28
3.44691e-28
3.26282e-28
3.03634e-28
2.77213e-28
2.47753e-28
2.16277e-28
1.84057e-28
1.52508e-28
1.23013e-28
9.67248e-29
7.4395e-29
5.62933e-29
4.22385e-29
3.1725e-29
2.40886e-29
1.86553e-29
1.48358e-29
1.42595e-28
1.41236e-28
1.38512e-28
1.34419e-28
1.28965e-28
1.22185e-28
1.14167e-28
1.05062e-28
9.50998e-29
8.45881e-29
7.38965e-29
6.34228e-29
5.35473e-29
4.45847e-29
3.67471e-29
3.01276e-29
2.47089e-29
2.03896e-29
1.70199e-29
1.44342e-29
7.09372e-29
7.04413e-29
6.94453e-29
6.7942e-29
6.5926e-29
6.33983e-29
6.03729e-29
5.68835e-29
5.29889e-29
4.87757e-29
4.43568e-29
3.98647e-29
3.54401e-29
3.12171e-29
2.73093e-29
2.37985e-29
2.073e-29
1.8114e-29
1.59323e-29
1.41472e-29
4.32591e-29
4.30423e-29
4.2606e-29
4.19454e-29
4.1055e-29
3.99309e-29
3.85727e-29
3.69872e-29
3.51901e-29
3.32085e-29
3.10813e-29
2.8858e-29
2.65962e-29
2.43562e-29
2.21965e-29
2.01678e-29
1.8309e-29
1.66457e-29
1.51896e-29
1.39405e-29
3.0604e-29
3.0495e-29
3.02753e-29
2.99418e-29
2.94907e-29
2.89182e-29
2.8222e-29
2.74021e-29
2.64623e-29
2.54117e-29
2.42647e-29
2.30418e-29
2.17684e-29
2.04737e-29
1.91883e-29
1.79416e-29
1.67603e-29
1.56655e-29
1.46727e-29
1.37909e-29
2.40328e-29
2.39719e-29
2.3849e-29
2.36623e-29
2.34091e-29
2.30868e-29
2.2693e-29
2.22265e-29
2.16877e-29
2.10796e-29
2.0408e-29
1.96819e-29
1.89134e-29
1.81175e-29
1.73107e-29
1.65104e-29
1.57335e-29
1.49953e-29
1.43083e-29
1.36822e-29
2.02862e-29
2.02495e-29
2.01754e-29
2.00626e-29
1.99096e-29
1.97143e-29
1.94751e-29
1.91907e-29
1.88606e-29
1.84857e-29
1.80684e-29
1.7613e-29
1.71257e-29
1.66144e-29
1.60887e-29
1.55588e-29
1.50355e-29
1.45292e-29
1.40491e-29
1.36032e-29
1.80009e-29
1.79775e-29
1.79303e-29
1.78584e-29
1.77608e-29
1.76361e-29
1.74833e-29
1.73011e-29
1.7089e-29
1.68473e-29
1.65769e-29
1.628e-29
1.59599e-29
1.56212e-29
1.52694e-29
1.49109e-29
1.45525e-29
1.42013e-29
1.38637e-29
1.35458e-29
1.65378e-29
1.65223e-29
1.6491e-29
1.64434e-29
1.63787e-29
1.62962e-29
1.61949e-29
1.60741e-29
1.59333e-29
1.57724e-29
1.55919e-29
1.5393e-29
1.51776e-29
1.49483e-29
1.47086e-29
1.44625e-29
1.42144e-29
1.39689e-29
1.37307e-29
1.3504e-29
1.55684e-29
1.55578e-29
1.55366e-29
1.55042e-29
1.54602e-29
1.54042e-29
1.53354e-29
1.52533e-29
1.51576e-29
1.50482e-29
1.49253e-29
1.47896e-29
1.46421e-29
1.44847e-29
1.43193e-29
1.41487e-29
1.39757e-29
1.38035e-29
1.36352e-29
1.34738e-29
1.49106e-29
1.49033e-29
1.48885e-29
1.48661e-29
1.48357e-29
1.4797e-29
1.47494e-29
1.46928e-29
1.46268e-29
1.45513e-29
1.44664e-29
1.43727e-29
1.42707e-29
1.41615e-29
1.40466e-29
1.39277e-29
1.38066e-29
1.36855e-29
1.35666e-29
1.3452e-29
1.44568e-29
1.44517e-29
1.44414e-29
1.44257e-29
1.44044e-29
1.43774e-29
1.43442e-29
1.43047e-29
1.42587e-29
1.42061e-29
1.41471e-29
1.40818e-29
1.40108e-29
1.39347e-29
1.38545e-29
1.37713e-29
1.36864e-29
1.36013e-29
1.35174e-29
1.34362e-29
1.41405e-29
1.41369e-29
1.41296e-29
1.41186e-29
1.41036e-29
1.40845e-29
1.40612e-29
1.40335e-29
1.40013e-29
1.39645e-29
1.39232e-29
1.38776e-29
1.3828e-29
1.37748e-29
1.37188e-29
1.36605e-29
1.3601e-29
1.35412e-29
1.34822e-29
1.34249e-29
1.39186e-29
1.3916e-29
1.39109e-29
1.3903e-29
1.38925e-29
1.3879e-29
1.38626e-29
1.38431e-29
1.38205e-29
1.37947e-29
1.37658e-29
1.37338e-29
1.36991e-29
1.3662e-29
1.36228e-29
1.3582e-29
1.35404e-29
1.34985e-29
1.34571e-29
1.34168e-29
1.37623e-29
1.37605e-29
1.37569e-29
1.37513e-29
1.37439e-29
1.37344e-29
1.37228e-29
1.37091e-29
1.36932e-29
1.36751e-29
1.36549e-29
1.36325e-29
1.36083e-29
1.35823e-29
1.35549e-29
1.35265e-29
1.34975e-29
1.34682e-29
1.34392e-29
1.3411e-29
1.36522e-29
1.36509e-29
1.36484e-29
1.36445e-29
1.36392e-29
1.36325e-29
1.36244e-29
1.36148e-29
1.36036e-29
1.35909e-29
1.35768e-29
1.35612e-29
1.35443e-29
1.35262e-29
1.35071e-29
1.34874e-29
1.34671e-29
1.34468e-29
1.34266e-29
1.3407e-29
1.35747e-29
1.35738e-29
1.3572e-29
1.35692e-29
1.35655e-29
1.35609e-29
1.35551e-29
1.35484e-29
1.35406e-29
1.35318e-29
1.35219e-29
1.3511e-29
1.34993e-29
1.34867e-29
1.34735e-29
1.34598e-29
1.34458e-29
1.34317e-29
1.34177e-29
1.34041e-29
1.35203e-29
1.35196e-29
1.35184e-29
1.35164e-29
1.35138e-29
1.35106e-29
1.35066e-29
1.35019e-29
1.34964e-29
1.34903e-29
1.34834e-29
1.34759e-29
1.34678e-29
1.34591e-29
1.345e-29
1.34405e-29
1.34308e-29
1.34211e-29
1.34115e-29
1.34021e-29
1.34822e-29
1.34817e-29
1.34808e-29
1.34795e-29
1.34777e-29
1.34754e-29
1.34726e-29
1.34694e-29
1.34656e-29
1.34613e-29
1.34566e-29
1.34514e-29
1.34458e-29
1.34398e-29
1.34335e-29
1.3427e-29
1.34204e-29
1.34137e-29
1.34071e-29
1.34006e-29
1.34556e-29
1.34553e-29
1.34547e-29
1.34537e-29
1.34525e-29
1.34509e-29
1.3449e-29
1.34467e-29
1.34441e-29
1.34412e-29
1.34379e-29
1.34344e-29
1.34305e-29
1.34264e-29
1.34221e-29
1.34177e-29
1.34131e-29
1.34086e-29
1.34041e-29
1.33997e-29
1.34372e-29
1.34369e-29
1.34365e-29
1.34359e-29
1.3435e-29
1.34339e-29
1.34326e-29
1.34311e-29
1.34293e-29
1.34273e-29
1.3425e-29
1.34226e-29
1.342e-29
1.34172e-29
1.34143e-29
1.34112e-29
1.34081e-29
1.3405e-29
1.3402e-29
1.3399e-29
1.34244e-29
1.34243e-29
1.3424e-29
1.34235e-29
1.3423e-29
1.34222e-29
1.34213e-29
1.34202e-29
1.3419e-29
1.34177e-29
1.34161e-29
1.34145e-29
1.34127e-29
1.34108e-29
1.34088e-29
1.34068e-29
1.34047e-29
1.34026e-29
1.34005e-29
1.33985e-29
1.34157e-29
1.34156e-29
1.34154e-29
1.34151e-29
1.34147e-29
1.34142e-29
1.34136e-29
1.34128e-29
1.3412e-29
1.34111e-29
1.34101e-29
1.34089e-29
1.34077e-29
1.34065e-29
1.34051e-29
1.34038e-29
1.34024e-29
1.3401e-29
1.33996e-29
1.33982e-29
1.34097e-29
1.34096e-29
1.34095e-29
1.34093e-29
1.3409e-29
1.34087e-29
1.34083e-29
1.34078e-29
1.34072e-29
1.34066e-29
1.34059e-29
1.34052e-29
1.34044e-29
1.34035e-29
1.34026e-29
1.34017e-29
1.34008e-29
1.33998e-29
1.33989e-29
1.3398e-29
1.34057e-29
1.34056e-29
1.34055e-29
1.34054e-29
1.34052e-29
1.3405e-29
1.34047e-29
1.34044e-29
1.3404e-29
1.34036e-29
1.34031e-29
1.34026e-29
1.34021e-29
1.34015e-29
1.34009e-29
1.34003e-29
1.33997e-29
1.33991e-29
1.33984e-29
1.33978e-29
1.34029e-29
1.34029e-29
1.34028e-29
1.34028e-29
1.34026e-29
1.34025e-29
1.34023e-29
1.34021e-29
1.34018e-29
1.34016e-29
1.34012e-29
1.34009e-29
1.34006e-29
1.34002e-29
1.33998e-29
1.33994e-29
1.3399e-29
1.33985e-29
1.33981e-29
1.33977e-29
1.34011e-29
1.34011e-29
1.34011e-29
1.3401e-29
1.34009e-29
1.34008e-29
1.34007e-29
1.34005e-29
1.34004e-29
1.34002e-29
1.34e-29
1.33998e-29
1.33995e-29
1.33993e-29
1.3399e-29
1.33988e-29
1.33985e-29
1.33982e-29
1.33979e-29
1.33977e-29
1.33999e-29
1.33999e-29
1.33999e-29
1.33998e-29
1.33998e-29
1.33997e-29
1.33996e-29
1.33995e-29
1.33994e-29
1.33993e-29
1.33992e-29
1.3399e-29
1.33989e-29
1.33987e-29
1.33985e-29
1.33983e-29
1.33982e-29
1.3398e-29
1.33978e-29
1.33976e-29
1.33991e-29
1.33991e-29
1.33991e-29
1.33991e-29
1.3399e-29
1.3399e-29
1.33989e-29
1.33989e-29
1.33988e-29
1.33987e-29
1.33986e-29
1.33985e-29
1.33984e-29
1.33983e-29
1.33982e-29
1.33981e-29
1.3398e-29
1.33978e-29
1.33977e-29
1.33976e-29
1.33986e-29
1.33986e-29
1.33986e-29
1.33986e-29
1.33986e-29
1.33985e-29
1.33985e-29
1.33985e-29
1.33984e-29
1.33983e-29
1.33983e-29
1.33982e-29
1.33981e-29
1.33981e-29
1.3398e-29
1.33979e-29
1.33978e-29
1.33977e-29
1.33977e-29
1.33976e-29
1.33983e-29
1.33983e-29
1.33983e-29
1.33983e-29
1.33983e-29
1.33983e-29
1.33982e-29
1.33982e-29
1.33982e-29
1.33981e-29
1.33981e-29
1.3398e-29
1.3398e-29
1.33979e-29
1.33979e-29
1.33978e-29
1.33978e-29
1.33977e-29
1.33976e-29
1.33976e-29
1.33982e-29
1.33982e-29
1.33982e-29
1.33982e-29
1.33982e-29
1.33981e-29
1.33981e-29
1.33981e-29
1.33981e-29
1.3398e-29
1.3398e-29
1.3398e-29
1.33979e-29
1.33979e-29
1.33978e-29
1.33978e-29
1.33977e-29
1.33977e-29
1.33976e-29
1.33976e-29
)
;

boundaryField
{
    topWall
    {
        type            zeroGradient;
    }
    bottomWall
    {
        type            zeroGradient;
    }
    sideWallL
    {
        type            symmetry;
    }
    sideWallR
    {
        type            zeroGradient;
    }
    frontAndBack
    {
        type            empty;
    }
}


// ************************************************************************* //
