/*--------------------------------*- C++ -*----------------------------------*\
  =========                 |
  \\      /  F ield         | OpenFOAM: The Open Source CFD Toolbox
   \\    /   O peration     | Website:  https://openfoam.org
    \\  /    A nd           | Version:  7
     \\/     M anipulation  |
\*---------------------------------------------------------------------------*/
FoamFile
{
    version     2.0;
    format      ascii;
    class       volScalarField;
    location    "24";
    object      rhog;
}
// * * * * * * * * * * * * * * * * * * * * * * * * * * * * * * * * * * * * * //

dimensions      [1 -3 0 0 0 0 0];

internalField   nonuniform List<scalar> 
900
(
0.00041312
0.000412782
0.00041208
0.000410959
0.000409329
0.000407058
0.00040396
0.000399771
0.000394126
0.000386513
0.000376213
0.000362206
0.000343033
0.000316604
0.000279936
0.000229021
0.000159847
7.58494e-05
1.10967e-05
1.15209e-08
2.75049e-05
2.74307e-05
2.7277e-05
2.70327e-05
2.66807e-05
2.61963e-05
2.55461e-05
2.46864e-05
2.35623e-05
2.21068e-05
2.02443e-05
1.78993e-05
1.50203e-05
1.16276e-05
7.90072e-06
4.29255e-06
1.54283e-06
2.40365e-07
5.71341e-09
1.26058e-12
1.89608e-06
1.88691e-06
1.868e-06
1.83818e-06
1.79564e-06
1.73795e-06
1.66204e-06
1.56431e-06
1.44095e-06
1.28863e-06
1.10571e-06
8.94435e-07
6.63889e-07
4.33139e-07
2.31417e-07
8.96625e-08
2.02725e-08
1.79129e-09
2.96457e-11
3.19344e-14
1.39847e-07
1.38859e-07
1.3683e-07
1.33654e-07
1.29177e-07
1.23202e-07
1.15508e-07
1.0588e-07
9.41728e-08
8.04061e-08
6.48995e-08
4.84301e-08
3.23313e-08
1.83754e-08
8.23925e-09
2.58834e-09
4.73239e-10
3.80252e-11
9.29605e-13
6.24818e-15
1.14139e-08
1.13088e-08
1.10939e-08
1.07604e-08
1.02957e-08
9.68552e-09
8.91633e-09
7.98028e-09
6.882e-09
5.64784e-09
4.33537e-09
3.03844e-09
1.87905e-09
9.76887e-10
3.98527e-10
1.15815e-10
2.10413e-11
2.04309e-12
9.43143e-14
2.70094e-15
1.06388e-09
1.05209e-09
1.02811e-09
9.9115e-10
9.40233e-10
8.7437e-10
7.92956e-10
6.96306e-10
5.86362e-10
4.67424e-10
3.46619e-10
2.33555e-10
1.38559e-10
6.94008e-11
2.77837e-11
8.30175e-12
1.71345e-12
2.28943e-13
2.01987e-14
1.66559e-15
1.16416e-10
1.14957e-10
1.12002e-10
1.07479e-10
1.01308e-10
9.34281e-11
8.38455e-11
7.26964e-11
6.03158e-11
4.72941e-11
3.4482e-11
2.28933e-11
1.34782e-11
6.80903e-12
2.83883e-12
9.36406e-13
2.35644e-13
4.4924e-14
7.04613e-15
1.23315e-15
1.52902e-11
1.50847e-11
1.46695e-11
1.40378e-11
1.31825e-11
1.21013e-11
1.08026e-11
9.31322e-12
7.68612e-12
6.00439e-12
4.3781e-12
2.92868e-12
1.76072e-12
9.29283e-13
4.20101e-13
1.59232e-13
5.01815e-14
1.34852e-14
3.41363e-15
1.01315e-15
2.44906e-12
2.41533e-12
2.34737e-12
2.24437e-12
2.10569e-12
1.93158e-12
1.72412e-12
1.48826e-12
1.23278e-12
9.70655e-13
7.18244e-13
4.929e-13
3.09136e-13
1.74545e-13
8.75742e-14
3.87954e-14
1.53101e-14
5.59659e-15
2.07039e-15
8.87033e-16
4.82915e-13
4.76383e-13
4.63242e-13
4.43376e-13
4.16721e-13
3.83385e-13
3.43816e-13
2.98979e-13
2.50496e-13
2.00689e-13
1.52426e-13
1.08723e-13
7.21457e-14
4.41747e-14
2.48473e-14
1.28816e-14
6.26305e-15
2.96991e-15
1.46488e-15
8.08944e-16
1.17648e-13
1.16148e-13
1.13131e-13
1.08577e-13
1.02475e-13
9.48526e-14
8.58084e-14
7.55482e-14
6.44121e-14
5.28823e-14
4.15548e-14
3.10656e-14
2.19803e-14
1.46747e-14
9.25556e-15
5.56069e-15
3.24238e-15
1.89286e-15
1.15175e-15
7.58014e-16
3.53732e-14
3.49652e-14
3.41451e-14
3.29071e-14
3.1248e-14
2.91733e-14
2.67061e-14
2.38946e-14
2.08199e-14
1.75978e-14
1.43736e-14
1.13073e-14
8.5497e-15
6.21528e-15
4.36141e-15
2.98164e-15
2.01672e-15
1.37813e-15
9.73334e-16
7.23577e-16
1.30634e-14
1.29331e-14
1.26712e-14
1.22754e-14
1.17443e-14
1.10786e-14
1.02836e-14
9.37175e-15
8.36466e-15
7.29406e-15
6.20093e-15
5.13211e-15
4.13452e-15
3.24819e-15
2.49977e-15
1.89907e-15
1.43959e-15
1.10282e-15
8.64397e-16
6.99694e-16
5.87197e-15
5.82372e-15
5.72665e-15
5.57984e-15
5.38239e-15
5.13405e-15
4.83599e-15
4.49155e-15
4.10707e-15
3.69225e-15
3.26016e-15
2.82639e-15
2.40753e-15
2.01911e-15
1.67346e-15
1.37817e-15
1.13548e-15
9.42861e-16
7.94474e-16
6.82828e-16
3.16263e-15
3.14224e-15
3.10117e-15
3.03898e-15
2.95513e-15
2.8493e-15
2.7216e-15
2.57292e-15
2.40523e-15
2.22178e-15
2.02716e-15
1.82715e-15
1.62825e-15
1.43704e-15
1.25939e-15
1.09985e-15
9.61128e-16
8.44082e-16
7.47937e-16
6.70765e-16
1.99313e-15
1.98347e-15
1.96399e-15
1.93444e-15
1.89451e-15
1.84394e-15
1.78262e-15
1.71074e-15
1.62892e-15
1.5383e-15
1.44066e-15
1.3383e-15
1.23401e-15
1.13078e-15
1.03153e-15
9.38844e-16
8.54688e-16
7.80293e-16
7.1614e-16
6.62062e-16
1.42684e-15
1.42179e-15
1.41161e-15
1.39616e-15
1.37523e-15
1.34865e-15
1.31628e-15
1.27812e-15
1.23434e-15
1.18538e-15
1.13193e-15
1.07501e-15
1.01588e-15
9.55992e-16
8.96873e-16
8.39986e-16
7.86605e-16
7.37723e-16
6.93997e-16
6.55746e-16
1.12554e-15
1.12269e-15
1.11694e-15
1.10819e-15
1.09633e-15
1.08123e-15
1.06279e-15
1.04094e-15
1.01573e-15
9.87311e-16
9.5598e-16
9.222e-16
8.86587e-16
8.49883e-16
8.12915e-16
7.7653e-16
7.41533e-16
7.08627e-16
6.78369e-16
6.51145e-16
9.52719e-16
9.51003e-16
9.47539e-16
9.4227e-16
9.35119e-16
9.25999e-16
9.14833e-16
9.01566e-16
8.86187e-16
8.68748e-16
8.49383e-16
8.28314e-16
8.05855e-16
7.82406e-16
7.58434e-16
7.34442e-16
7.10936e-16
6.88395e-16
6.67235e-16
6.47788e-16
8.47595e-16
8.4651e-16
8.4432e-16
8.40987e-16
8.36461e-16
8.30685e-16
8.23602e-16
8.15169e-16
8.05365e-16
7.94203e-16
7.81744e-16
7.681e-16
7.53441e-16
7.37992e-16
7.22026e-16
7.0585e-16
6.89786e-16
6.74154e-16
6.59252e-16
6.45337e-16
7.80711e-16
7.79999e-16
7.78561e-16
7.76374e-16
7.73403e-16
7.6961e-16
7.64957e-16
7.59409e-16
7.52949e-16
7.45575e-16
7.37317e-16
7.28234e-16
7.18421e-16
7.08012e-16
6.97171e-16
6.8609e-16
6.74977e-16
6.64048e-16
6.53509e-16
6.43548e-16
7.36695e-16
7.36215e-16
7.35245e-16
7.33769e-16
7.31765e-16
7.29208e-16
7.2607e-16
7.22328e-16
7.17966e-16
7.12982e-16
7.07388e-16
7.01219e-16
6.94531e-16
6.87404e-16
6.79943e-16
6.72269e-16
6.6452e-16
6.56838e-16
6.49369e-16
6.42246e-16
7.06998e-16
7.06667e-16
7.05999e-16
7.04984e-16
7.03607e-16
7.01849e-16
6.99693e-16
6.97123e-16
6.94128e-16
6.90703e-16
6.86856e-16
6.82607e-16
6.77991e-16
6.73059e-16
6.67877e-16
6.62525e-16
6.57093e-16
6.5168e-16
6.46383e-16
6.41299e-16
6.866e-16
6.86369e-16
6.85903e-16
6.85195e-16
6.84235e-16
6.83011e-16
6.81511e-16
6.79724e-16
6.77643e-16
6.75264e-16
6.72591e-16
6.69638e-16
6.66426e-16
6.62988e-16
6.59369e-16
6.5562e-16
6.51804e-16
6.47985e-16
6.44232e-16
6.40613e-16
6.72414e-16
6.72251e-16
6.71923e-16
6.71425e-16
6.7075e-16
6.69891e-16
6.68839e-16
6.67587e-16
6.6613e-16
6.64466e-16
6.62597e-16
6.60532e-16
6.58286e-16
6.55881e-16
6.53345e-16
6.50715e-16
6.48032e-16
6.4534e-16
6.42686e-16
6.40118e-16
6.62467e-16
6.62352e-16
6.6212e-16
6.61768e-16
6.61291e-16
6.60685e-16
6.59944e-16
6.59063e-16
6.58039e-16
6.5687e-16
6.55559e-16
6.54112e-16
6.52538e-16
6.50852e-16
6.49074e-16
6.47229e-16
6.45343e-16
6.43449e-16
6.41577e-16
6.39761e-16
6.5546e-16
6.55378e-16
6.55213e-16
6.54964e-16
6.54627e-16
6.54198e-16
6.53675e-16
6.53054e-16
6.52333e-16
6.51511e-16
6.50591e-16
6.49576e-16
6.48472e-16
6.47291e-16
6.46045e-16
6.44752e-16
6.4343e-16
6.421e-16
6.40784e-16
6.39506e-16
6.50512e-16
6.50454e-16
6.50337e-16
6.5016e-16
6.49922e-16
6.49619e-16
6.4925e-16
6.48812e-16
6.48305e-16
6.47728e-16
6.47082e-16
6.4637e-16
6.45598e-16
6.44771e-16
6.439e-16
6.42996e-16
6.42071e-16
6.41141e-16
6.4022e-16
6.39323e-16
6.47017e-16
6.46976e-16
6.46894e-16
6.46769e-16
6.466e-16
6.46386e-16
6.46126e-16
6.45819e-16
6.45462e-16
6.45058e-16
6.44606e-16
6.44108e-16
6.43568e-16
6.42992e-16
6.42385e-16
6.41754e-16
6.4111e-16
6.40462e-16
6.3982e-16
6.39194e-16
6.44553e-16
6.44524e-16
6.44465e-16
6.44377e-16
6.44259e-16
6.44108e-16
6.43926e-16
6.4371e-16
6.43461e-16
6.43178e-16
6.42862e-16
6.42516e-16
6.4214e-16
6.41739e-16
6.41317e-16
6.4088e-16
6.40433e-16
6.39983e-16
6.39537e-16
6.39103e-16
6.42819e-16
6.42798e-16
6.42757e-16
6.42696e-16
6.42612e-16
6.42507e-16
6.4238e-16
6.42229e-16
6.42055e-16
6.41858e-16
6.41639e-16
6.41398e-16
6.41138e-16
6.4086e-16
6.40568e-16
6.40266e-16
6.39957e-16
6.39646e-16
6.39338e-16
6.39038e-16
6.41603e-16
6.41589e-16
6.4156e-16
6.41517e-16
6.41459e-16
6.41386e-16
6.41297e-16
6.41192e-16
6.41072e-16
6.40935e-16
6.40783e-16
6.40617e-16
6.40437e-16
6.40246e-16
6.40045e-16
6.39837e-16
6.39625e-16
6.39411e-16
6.392e-16
6.38993e-16
6.40755e-16
6.40745e-16
6.40725e-16
6.40695e-16
6.40655e-16
6.40604e-16
6.40542e-16
6.4047e-16
6.40386e-16
6.40292e-16
6.40188e-16
6.40074e-16
6.3995e-16
6.39819e-16
6.39681e-16
6.39539e-16
6.39394e-16
6.39248e-16
6.39103e-16
6.38962e-16
6.40165e-16
6.40158e-16
6.40144e-16
6.40124e-16
6.40096e-16
6.40061e-16
6.40019e-16
6.39969e-16
6.39912e-16
6.39847e-16
6.39776e-16
6.39697e-16
6.39613e-16
6.39524e-16
6.3943e-16
6.39333e-16
6.39234e-16
6.39135e-16
6.39036e-16
6.38941e-16
6.39757e-16
6.39753e-16
6.39743e-16
6.39729e-16
6.3971e-16
6.39686e-16
6.39657e-16
6.39623e-16
6.39584e-16
6.3954e-16
6.39491e-16
6.39438e-16
6.39381e-16
6.3932e-16
6.39257e-16
6.39191e-16
6.39124e-16
6.39057e-16
6.3899e-16
6.38926e-16
6.39477e-16
6.39474e-16
6.39468e-16
6.39458e-16
6.39445e-16
6.39429e-16
6.39409e-16
6.39386e-16
6.39359e-16
6.3933e-16
6.39297e-16
6.39261e-16
6.39222e-16
6.39181e-16
6.39138e-16
6.39094e-16
6.39049e-16
6.39004e-16
6.38959e-16
6.38915e-16
6.39286e-16
6.39284e-16
6.39279e-16
6.39273e-16
6.39264e-16
6.39253e-16
6.3924e-16
6.39224e-16
6.39206e-16
6.39186e-16
6.39164e-16
6.3914e-16
6.39114e-16
6.39086e-16
6.39058e-16
6.39028e-16
6.38998e-16
6.38968e-16
6.38938e-16
6.38909e-16
6.39156e-16
6.39154e-16
6.39151e-16
6.39147e-16
6.39141e-16
6.39134e-16
6.39125e-16
6.39114e-16
6.39102e-16
6.39089e-16
6.39074e-16
6.39058e-16
6.3904e-16
6.39022e-16
6.39003e-16
6.38983e-16
6.38963e-16
6.38943e-16
6.38923e-16
6.38904e-16
6.39068e-16
6.39067e-16
6.39065e-16
6.39062e-16
6.39058e-16
6.39053e-16
6.39047e-16
6.3904e-16
6.39032e-16
6.39023e-16
6.39013e-16
6.39003e-16
6.38991e-16
6.38979e-16
6.38966e-16
6.38953e-16
6.3894e-16
6.38927e-16
6.38914e-16
6.38901e-16
6.39009e-16
6.39009e-16
6.39008e-16
6.39006e-16
6.39003e-16
6.39e-16
6.38996e-16
6.38991e-16
6.38986e-16
6.3898e-16
6.38973e-16
6.38966e-16
6.38958e-16
6.3895e-16
6.38942e-16
6.38933e-16
6.38925e-16
6.38916e-16
6.38907e-16
6.38899e-16
6.38971e-16
6.3897e-16
6.38969e-16
6.38968e-16
6.38966e-16
6.38964e-16
6.38961e-16
6.38958e-16
6.38955e-16
6.38951e-16
6.38946e-16
6.38942e-16
6.38937e-16
6.38931e-16
6.38926e-16
6.3892e-16
6.38914e-16
6.38909e-16
6.38903e-16
6.38897e-16
6.38945e-16
6.38945e-16
6.38944e-16
6.38944e-16
6.38942e-16
6.38941e-16
6.38939e-16
6.38937e-16
6.38935e-16
6.38932e-16
6.38929e-16
6.38926e-16
6.38923e-16
6.38919e-16
6.38915e-16
6.38912e-16
6.38908e-16
6.38904e-16
6.389e-16
6.38896e-16
6.38929e-16
6.38929e-16
6.38929e-16
6.38928e-16
6.38927e-16
6.38926e-16
6.38925e-16
6.38924e-16
6.38922e-16
6.3892e-16
6.38918e-16
6.38916e-16
6.38914e-16
6.38911e-16
6.38909e-16
6.38906e-16
6.38904e-16
6.38901e-16
6.38898e-16
6.38896e-16
6.3892e-16
6.3892e-16
6.3892e-16
6.38919e-16
6.38919e-16
6.38918e-16
6.38917e-16
6.38916e-16
6.38915e-16
6.38913e-16
6.38912e-16
6.3891e-16
6.38909e-16
6.38907e-16
6.38905e-16
6.38903e-16
6.38901e-16
6.38899e-16
6.38897e-16
6.38895e-16
6.38916e-16
6.38916e-16
6.38915e-16
6.38915e-16
6.38914e-16
6.38914e-16
6.38913e-16
6.38912e-16
6.38911e-16
6.3891e-16
6.38909e-16
6.38908e-16
6.38906e-16
6.38905e-16
6.38903e-16
6.38902e-16
6.389e-16
6.38898e-16
6.38897e-16
6.38895e-16
)
;

boundaryField
{
    topWall
    {
        type            calculated;
        value           uniform 0;
    }
    bottomWall
    {
        type            zeroGradient;
    }
    sideWallL
    {
        type            symmetry;
    }
    sideWallR
    {
        type            calculated;
        value           uniform 0;
    }
    frontAndBack
    {
        type            empty;
    }
}


// ************************************************************************* //
