/*--------------------------------*- C++ -*----------------------------------*\
  =========                 |
  \\      /  F ield         | OpenFOAM: The Open Source CFD Toolbox
   \\    /   O peration     | Website:  https://openfoam.org
    \\  /    A nd           | Version:  7
     \\/     M anipulation  |
\*---------------------------------------------------------------------------*/
FoamFile
{
    version     2.0;
    format      ascii;
    class       volScalarField;
    location    "24";
    object      rhois;
}
// * * * * * * * * * * * * * * * * * * * * * * * * * * * * * * * * * * * * * //

dimensions      [1 -3 0 0 0 0 0];

internalField   nonuniform List<scalar> 
900
(
0.00411389
0.00411151
0.00410655
0.00409861
0.00408705
0.00407089
0.00404877
0.00401874
0.00397805
0.0039228
0.00384742
0.00374378
0.00359984
0.00339734
0.00310797
0.00268739
0.00207049
0.0012052
0.000298547
2.06661e-06
0.000563154
0.000562075
0.000559835
0.000556267
0.000551101
0.000543951
0.000534277
0.000521358
0.000504239
0.000481688
0.000452159
0.000413808
0.000364658
0.000303112
0.000229237
0.000147427
7.02857e-05
1.83018e-05
1.22908e-06
2.98405e-09
7.92997e-05
7.90275e-05
7.84644e-05
7.7572e-05
7.62906e-05
7.45363e-05
7.21987e-05
6.91388e-05
6.51914e-05
6.01737e-05
5.39104e-05
4.62868e-05
3.73474e-05
2.74531e-05
1.74674e-05
8.8122e-06
3.01481e-06
5.25062e-07
2.77403e-08
2.26341e-10
1.17778e-05
1.17188e-05
1.15971e-05
1.14054e-05
1.11326e-05
1.07638e-05
1.02804e-05
9.66147e-06
8.8855e-06
7.93536e-06
6.80598e-06
5.51673e-06
4.12706e-06
2.74956e-06
1.54447e-06
6.71825e-07
1.98315e-07
3.26223e-08
2.34062e-09
7.36586e-11
1.8916e-06
1.87927e-06
1.85393e-06
1.81428e-06
1.75838e-06
1.68375e-06
1.58758e-06
1.46706e-06
1.32012e-06
1.14645e-06
9.49032e-07
7.35959e-07
5.21729e-07
3.26583e-07
1.7186e-07
7.09986e-08
2.10224e-08
4.01689e-09
4.6609e-10
4.15538e-11
3.36271e-07
3.33639e-07
3.28254e-07
3.19879e-07
3.08175e-07
2.92739e-07
2.73155e-07
2.49095e-07
2.20471e-07
1.87646e-07
1.5167e-07
1.14486e-07
7.8914e-08
4.82152e-08
2.51257e-08
1.06505e-08
3.48773e-09
8.50274e-10
1.59914e-10
2.98657e-11
6.7533e-08
6.6938e-08
6.57244e-08
6.38474e-08
6.12455e-08
5.78499e-08
5.35991e-08
4.84622e-08
4.24706e-08
3.57563e-08
2.85885e-08
2.13887e-08
1.46969e-08
9.06471e-09
4.88627e-09
2.2388e-09
8.53645e-10
2.72131e-10
7.79108e-11
2.42924e-11
1.55788e-08
1.54324e-08
1.51346e-08
1.46762e-08
1.40451e-08
1.32284e-08
1.22167e-08
1.10093e-08
9.62068e-09
8.08832e-09
6.47796e-09
4.88345e-09
3.41638e-09
2.18306e-09
1.25397e-09
6.39527e-10
2.89302e-10
1.19002e-10
4.78007e-11
2.12025e-11
4.17928e-09
4.13938e-09
4.05841e-09
3.93422e-09
3.76408e-09
3.54532e-09
3.27634e-09
2.95792e-09
2.59483e-09
2.19733e-09
1.78215e-09
1.372e-09
9.92857e-10
6.68933e-10
4.16493e-10
2.39221e-10
1.28007e-10
6.57221e-11
3.41916e-11
1.93241e-11
1.31446e-09
1.30229e-09
1.27763e-09
1.2399e-09
1.18839e-09
1.12243e-09
1.04169e-09
9.46531e-10
8.38395e-10
7.20213e-10
5.96583e-10
4.73612e-10
3.58222e-10
2.56954e-10
1.74523e-10
1.12703e-10
7.01206e-11
4.30961e-11
2.7111e-11
1.81119e-11
4.86742e-10
4.82568e-10
4.74119e-10
4.61216e-10
4.43635e-10
4.21171e-10
3.93726e-10
3.61412e-10
3.24677e-10
2.84407e-10
2.41985e-10
1.99246e-10
1.58294e-10
1.21189e-10
8.95578e-11
6.42747e-11
4.53333e-11
3.19824e-11
2.30493e-11
1.72971e-11
2.12245e-10
2.10638e-10
2.07388e-10
2.02428e-10
1.95676e-10
1.87054e-10
1.76519e-10
1.641e-10
1.49936e-10
1.34314e-10
1.17689e-10
1.00671e-10
8.39828e-11
6.83606e-11
5.44433e-11
4.26633e-11
3.31847e-11
2.59105e-11
2.05532e-11
1.6734e-11
1.08444e-10
1.07753e-10
1.06357e-10
1.04228e-10
1.01329e-10
9.76258e-11
9.30952e-11
8.77397e-11
8.16024e-11
7.47813e-11
6.74378e-11
5.97961e-11
5.21293e-11
4.4731e-11
3.7877e-11
3.17857e-11
2.65893e-11
2.23239e-11
1.89416e-11
1.63369e-11
6.41615e-11
6.38338e-11
6.3171e-11
6.21597e-11
6.07826e-11
5.90215e-11
5.68628e-11
5.43023e-11
5.13524e-11
4.80476e-11
4.44493e-11
4.06461e-11
3.6751e-11
3.28914e-11
2.91956e-11
2.57775e-11
2.27226e-11
2.00804e-11
1.78633e-11
1.60529e-11
4.31406e-11
4.29706e-11
4.26267e-11
4.21019e-11
4.13868e-11
4.04712e-11
3.93466e-11
3.80081e-11
3.64581e-11
3.47089e-11
3.27848e-11
3.07235e-11
2.85751e-11
2.63988e-11
2.42584e-11
2.22151e-11
2.03215e-11
1.86165e-11
1.7123e-11
1.5848e-11
3.2205e-11
3.21098e-11
3.19174e-11
3.16236e-11
3.1223e-11
3.07096e-11
3.00778e-11
2.93237e-11
2.84466e-11
2.74505e-11
2.63456e-11
2.51486e-11
2.38832e-11
2.25788e-11
2.12686e-11
1.99867e-11
1.87653e-11
1.76315e-11
1.66052e-11
1.5699e-11
2.6066e-11
2.60093e-11
2.58946e-11
2.57195e-11
2.54806e-11
2.51742e-11
2.47967e-11
2.4345e-11
2.38178e-11
2.32163e-11
2.25446e-11
2.18106e-11
2.10261e-11
2.02064e-11
1.93697e-11
1.85358e-11
1.77243e-11
1.69534e-11
1.62382e-11
1.55903e-11
2.24008e-11
2.23652e-11
2.22933e-11
2.21834e-11
2.20336e-11
2.18414e-11
2.16044e-11
2.13203e-11
2.09881e-11
2.06076e-11
2.01807e-11
1.97112e-11
1.92053e-11
1.86714e-11
1.81199e-11
1.75625e-11
1.70115e-11
1.6479e-11
1.59757e-11
1.55108e-11
2.01031e-11
2.00799e-11
2.0033e-11
1.99613e-11
1.98636e-11
1.97382e-11
1.95835e-11
1.9398e-11
1.91808e-11
1.89314e-11
1.86507e-11
1.83407e-11
1.80046e-11
1.76474e-11
1.72752e-11
1.68952e-11
1.65152e-11
1.61432e-11
1.57867e-11
1.54525e-11
1.86074e-11
1.85918e-11
1.85602e-11
1.8512e-11
1.84462e-11
1.8362e-11
1.8258e-11
1.81334e-11
1.79874e-11
1.78195e-11
1.76302e-11
1.74206e-11
1.71924e-11
1.69487e-11
1.66932e-11
1.64305e-11
1.61655e-11
1.59037e-11
1.56502e-11
1.54099e-11
1.76054e-11
1.75946e-11
1.75729e-11
1.75397e-11
1.74945e-11
1.74366e-11
1.73652e-11
1.72797e-11
1.71795e-11
1.70643e-11
1.69343e-11
1.679e-11
1.66327e-11
1.64641e-11
1.62866e-11
1.61032e-11
1.59171e-11
1.5732e-11
1.55514e-11
1.53788e-11
1.69197e-11
1.69122e-11
1.68969e-11
1.68737e-11
1.68422e-11
1.68017e-11
1.6752e-11
1.66924e-11
1.66227e-11
1.65425e-11
1.6452e-11
1.63516e-11
1.62419e-11
1.61242e-11
1.59999e-11
1.5871e-11
1.57398e-11
1.56085e-11
1.54798e-11
1.53561e-11
1.64432e-11
1.64379e-11
1.64271e-11
1.64107e-11
1.63884e-11
1.63599e-11
1.63248e-11
1.62829e-11
1.62338e-11
1.61776e-11
1.61141e-11
1.60436e-11
1.59666e-11
1.58839e-11
1.57964e-11
1.57056e-11
1.56128e-11
1.55197e-11
1.54281e-11
1.53396e-11
1.61085e-11
1.61047e-11
1.6097e-11
1.60853e-11
1.60695e-11
1.60492e-11
1.60244e-11
1.59947e-11
1.596e-11
1.59203e-11
1.58755e-11
1.58258e-11
1.57715e-11
1.57132e-11
1.56516e-11
1.55874e-11
1.55218e-11
1.54558e-11
1.53907e-11
1.53276e-11
1.58718e-11
1.58691e-11
1.58636e-11
1.58553e-11
1.58439e-11
1.58295e-11
1.58118e-11
1.57907e-11
1.57661e-11
1.5738e-11
1.57063e-11
1.56712e-11
1.56329e-11
1.55918e-11
1.55483e-11
1.5503e-11
1.54566e-11
1.54099e-11
1.53638e-11
1.53189e-11
1.57038e-11
1.57018e-11
1.56979e-11
1.56919e-11
1.56838e-11
1.56735e-11
1.56609e-11
1.56459e-11
1.56285e-11
1.56085e-11
1.55861e-11
1.55613e-11
1.55343e-11
1.55053e-11
1.54746e-11
1.54427e-11
1.541e-11
1.5377e-11
1.53444e-11
1.53127e-11
1.55842e-11
1.55828e-11
1.558e-11
1.55758e-11
1.557e-11
1.55626e-11
1.55537e-11
1.5543e-11
1.55306e-11
1.55165e-11
1.55007e-11
1.54832e-11
1.54641e-11
1.54437e-11
1.54221e-11
1.53997e-11
1.53767e-11
1.53535e-11
1.53306e-11
1.53082e-11
1.54992e-11
1.54982e-11
1.54962e-11
1.54932e-11
1.54891e-11
1.54839e-11
1.54775e-11
1.54699e-11
1.54612e-11
1.54512e-11
1.544e-11
1.54277e-11
1.54143e-11
1.54e-11
1.53849e-11
1.53691e-11
1.5353e-11
1.53368e-11
1.53207e-11
1.5305e-11
1.54389e-11
1.54382e-11
1.54367e-11
1.54346e-11
1.54317e-11
1.5428e-11
1.54235e-11
1.54181e-11
1.5412e-11
1.54049e-11
1.53971e-11
1.53885e-11
1.53791e-11
1.53691e-11
1.53585e-11
1.53475e-11
1.53362e-11
1.53249e-11
1.53137e-11
1.53028e-11
1.53962e-11
1.53957e-11
1.53946e-11
1.53931e-11
1.53911e-11
1.53884e-11
1.53853e-11
1.53815e-11
1.53772e-11
1.53723e-11
1.53668e-11
1.53607e-11
1.53542e-11
1.53472e-11
1.53399e-11
1.53322e-11
1.53244e-11
1.53166e-11
1.53088e-11
1.53012e-11
1.5366e-11
1.53657e-11
1.53649e-11
1.53639e-11
1.53624e-11
1.53606e-11
1.53584e-11
1.53557e-11
1.53527e-11
1.53493e-11
1.53455e-11
1.53413e-11
1.53367e-11
1.53319e-11
1.53268e-11
1.53215e-11
1.53161e-11
1.53107e-11
1.53053e-11
1.53e-11
1.53448e-11
1.53446e-11
1.53441e-11
1.53433e-11
1.53423e-11
1.5341e-11
1.53395e-11
1.53377e-11
1.53356e-11
1.53332e-11
1.53305e-11
1.53276e-11
1.53245e-11
1.53212e-11
1.53176e-11
1.5314e-11
1.53103e-11
1.53066e-11
1.53028e-11
1.52992e-11
1.533e-11
1.53299e-11
1.53295e-11
1.5329e-11
1.53283e-11
1.53274e-11
1.53263e-11
1.53251e-11
1.53236e-11
1.5322e-11
1.53201e-11
1.53181e-11
1.5316e-11
1.53137e-11
1.53113e-11
1.53088e-11
1.53062e-11
1.53037e-11
1.53012e-11
1.52987e-11
1.53197e-11
1.53196e-11
1.53194e-11
1.5319e-11
1.53185e-11
1.53179e-11
1.53172e-11
1.53163e-11
1.53153e-11
1.53142e-11
1.53129e-11
1.53116e-11
1.53101e-11
1.53085e-11
1.53069e-11
1.53052e-11
1.53035e-11
1.53017e-11
1.53e-11
1.52983e-11
1.53126e-11
1.53125e-11
1.53124e-11
1.53121e-11
1.53118e-11
1.53114e-11
1.53109e-11
1.53103e-11
1.53096e-11
1.53088e-11
1.5308e-11
1.5307e-11
1.5306e-11
1.5305e-11
1.53038e-11
1.53027e-11
1.53015e-11
1.53004e-11
1.52992e-11
1.52981e-11
1.53077e-11
1.53077e-11
1.53075e-11
1.53074e-11
1.53071e-11
1.53069e-11
1.53065e-11
1.53061e-11
1.53056e-11
1.53051e-11
1.53045e-11
1.53039e-11
1.53032e-11
1.53025e-11
1.53018e-11
1.5301e-11
1.53002e-11
1.52994e-11
1.52986e-11
1.52979e-11
1.53044e-11
1.53043e-11
1.53042e-11
1.53041e-11
1.5304e-11
1.53038e-11
1.53035e-11
1.53033e-11
1.5303e-11
1.53026e-11
1.53022e-11
1.53018e-11
1.53013e-11
1.53009e-11
1.53004e-11
1.52998e-11
1.52993e-11
1.52988e-11
1.52983e-11
1.52978e-11
1.53021e-11
1.53021e-11
1.5302e-11
1.53019e-11
1.53018e-11
1.53017e-11
1.53015e-11
1.53014e-11
1.53011e-11
1.53009e-11
1.53006e-11
1.53004e-11
1.53001e-11
1.52997e-11
1.52994e-11
1.52991e-11
1.52987e-11
1.52984e-11
1.5298e-11
1.52977e-11
1.53005e-11
1.53005e-11
1.53005e-11
1.53004e-11
1.53004e-11
1.53003e-11
1.53002e-11
1.53001e-11
1.52999e-11
1.52998e-11
1.52996e-11
1.52994e-11
1.52992e-11
1.5299e-11
1.52988e-11
1.52985e-11
1.52983e-11
1.52981e-11
1.52978e-11
1.52976e-11
1.52995e-11
1.52995e-11
1.52995e-11
1.52995e-11
1.52994e-11
1.52993e-11
1.52993e-11
1.52992e-11
1.52991e-11
1.5299e-11
1.52989e-11
1.52988e-11
1.52986e-11
1.52985e-11
1.52983e-11
1.52982e-11
1.5298e-11
1.52979e-11
1.52977e-11
1.52976e-11
1.52988e-11
1.52988e-11
1.52988e-11
1.52988e-11
1.52988e-11
1.52987e-11
1.52987e-11
1.52986e-11
1.52986e-11
1.52985e-11
1.52984e-11
1.52983e-11
1.52982e-11
1.52982e-11
1.52981e-11
1.5298e-11
1.52979e-11
1.52978e-11
1.52977e-11
1.52976e-11
1.52984e-11
1.52984e-11
1.52984e-11
1.52984e-11
1.52983e-11
1.52983e-11
1.52983e-11
1.52983e-11
1.52982e-11
1.52982e-11
1.52981e-11
1.52981e-11
1.5298e-11
1.52979e-11
1.52979e-11
1.52978e-11
1.52977e-11
1.52977e-11
1.52976e-11
1.52975e-11
1.52981e-11
1.52981e-11
1.52981e-11
1.52981e-11
1.52981e-11
1.52981e-11
1.5298e-11
1.5298e-11
1.5298e-11
1.5298e-11
1.52979e-11
1.52979e-11
1.52978e-11
1.52978e-11
1.52978e-11
1.52977e-11
1.52977e-11
1.52976e-11
1.52976e-11
1.52975e-11
1.5298e-11
1.5298e-11
1.52979e-11
1.52979e-11
1.52979e-11
1.52979e-11
1.52979e-11
1.52979e-11
1.52979e-11
1.52978e-11
1.52978e-11
1.52978e-11
1.52978e-11
1.52977e-11
1.52977e-11
1.52977e-11
1.52976e-11
1.52976e-11
1.52976e-11
1.52975e-11
1.52979e-11
1.52979e-11
1.52979e-11
1.52979e-11
1.52979e-11
1.52978e-11
1.52978e-11
1.52978e-11
1.52978e-11
1.52978e-11
1.52978e-11
1.52977e-11
1.52977e-11
1.52977e-11
1.52977e-11
1.52976e-11
1.52976e-11
1.52976e-11
1.52975e-11
1.52975e-11
)
;

boundaryField
{
    topWall
    {
        type            zeroGradient;
    }
    bottomWall
    {
        type            zeroGradient;
    }
    sideWallL
    {
        type            symmetry;
    }
    sideWallR
    {
        type            zeroGradient;
    }
    frontAndBack
    {
        type            empty;
    }
}


// ************************************************************************* //
