/*--------------------------------*- C++ -*----------------------------------*\
  =========                 |
  \\      /  F ield         | OpenFOAM: The Open Source CFD Toolbox
   \\    /   O peration     | Website:  https://openfoam.org
    \\  /    A nd           | Version:  7
     \\/     M anipulation  |
\*---------------------------------------------------------------------------*/
FoamFile
{
    version     2.0;
    format      ascii;
    class       volScalarField;
    location    "24";
    object      rhot1;
}
// * * * * * * * * * * * * * * * * * * * * * * * * * * * * * * * * * * * * * //

dimensions      [1 -3 0 0 0 0 0];

internalField   nonuniform List<scalar> 
900
(
0.00329027
0.00328767
0.00328228
0.00327366
0.00326112
0.00324365
0.00321981
0.00318756
0.00314407
0.00308537
0.00300587
0.00289763
0.00274921
0.00254412
0.00225857
0.00185987
0.00131323
0.000638122
9.91935e-05
1.28012e-07
0.000238264
0.000237642
0.000236354
0.000234308
0.000231358
0.000227295
0.000221837
0.000214613
0.000205152
0.000192878
0.000177132
0.000157236
0.000132689
0.000103561
7.12382e-05
3.94608e-05
1.465e-05
2.42083e-06
6.48174e-08
1.88274e-11
1.78278e-05
1.77445e-05
1.75726e-05
1.73013e-05
1.6914e-05
1.63883e-05
1.56955e-05
1.48019e-05
1.36713e-05
1.22705e-05
1.0581e-05
8.61791e-06
6.45812e-06
4.27147e-06
2.32832e-06
9.29821e-07
2.20452e-07
2.10549e-08
3.98046e-10
5.41085e-13
1.42472e-06
1.41499e-06
1.395e-06
1.36369e-06
1.3195e-06
1.26045e-06
1.18424e-06
1.08864e-06
9.71993e-07
8.34191e-07
6.7802e-07
5.1078e-07
3.45471e-07
1.99957e-07
9.20037e-08
3.00014e-08
5.7949e-09
5.05479e-10
1.39807e-11
1.12331e-13
1.25658e-07
1.24539e-07
1.22252e-07
1.18698e-07
1.1374e-07
1.07217e-07
9.89732e-08
8.89082e-08
7.70471e-08
6.36418e-08
4.92771e-08
3.49388e-08
2.1948e-08
1.16559e-08
4.8959e-09
1.48132e-09
2.84621e-10
2.98656e-11
1.53242e-12
5.01094e-14
1.26116e-08
1.24765e-08
1.22016e-08
1.17775e-08
1.11923e-08
1.04337e-08
9.49317e-09
8.37229e-09
7.0907e-09
5.69503e-09
4.26508e-09
2.91151e-09
1.75724e-09
9.00435e-10
3.71535e-10
1.15553e-10
2.51448e-11
3.59937e-12
3.46481e-13
3.14696e-14
1.47939e-09
1.46149e-09
1.42518e-09
1.36955e-09
1.29352e-09
1.19619e-09
1.07743e-09
9.38668e-10
7.83709e-10
6.19544e-10
4.56508e-10
3.07263e-10
1.8413e-10
9.51713e-11
4.08637e-11
1.3996e-11
3.6937e-12
7.46988e-13
1.25654e-13
2.3562e-14
2.07242e-10
2.04553e-10
1.99116e-10
1.90831e-10
1.79593e-10
1.65349e-10
1.4818e-10
1.284e-10
1.06664e-10
8.40301e-11
6.19328e-11
4.20001e-11
2.56923e-11
1.38601e-11
6.43984e-12
2.52525e-12
8.29515e-13
2.34161e-13
6.25945e-14
1.94984e-14
3.52098e-11
3.4742e-11
3.37984e-11
3.23665e-11
3.04348e-11
2.8003e-11
2.50949e-11
2.17735e-11
1.81546e-11
1.4414e-11
1.07783e-11
7.49459e-12
4.77799e-12
2.75285e-12
1.41574e-12
6.46147e-13
2.64127e-13
1.00475e-13
3.87194e-14
1.71529e-14
7.32251e-12
7.22704e-12
7.0348e-12
6.74382e-12
6.3526e-12
5.86202e-12
5.27768e-12
4.61253e-12
3.88922e-12
3.14086e-12
2.40931e-12
1.7397e-12
1.17184e-12
7.30659e-13
4.19996e-13
2.23353e-13
1.11782e-13
5.46728e-14
2.77738e-14
1.56936e-14
1.87091e-12
1.84795e-12
1.80174e-12
1.73189e-12
1.63811e-12
1.52067e-12
1.38085e-12
1.22157e-12
1.04776e-12
8.66623e-13
6.87232e-13
5.19497e-13
3.72509e-13
2.52673e-13
1.62338e-13
9.9598e-14
5.9411e-14
3.54888e-14
2.20438e-14
1.47384e-14
5.86803e-13
5.80302e-13
5.67226e-13
5.47463e-13
5.20928e-13
4.87669e-13
4.47993e-13
4.02606e-13
3.52729e-13
3.00151e-13
2.47166e-13
1.96345e-13
1.5018e-13
1.1064e-13
7.88177e-14
5.47754e-14
3.7684e-14
2.61749e-14
1.875e-14
1.4091e-14
2.24904e-13
2.22755e-13
2.18433e-13
2.11896e-13
2.03109e-13
1.9207e-13
1.7885e-13
1.63636e-13
1.4676e-13
1.28728e-13
1.10204e-13
9.19595e-14
7.47878e-14
5.93835e-14
4.62346e-14
3.55545e-14
2.72801e-14
2.11347e-14
1.67256e-14
1.36411e-14
1.04374e-13
1.03555e-13
1.01907e-13
9.9411e-14
9.60498e-14
9.18142e-14
8.67181e-14
8.08115e-14
7.41939e-14
6.7023e-14
5.9515e-14
5.19324e-14
4.45601e-14
3.76703e-14
3.14866e-14
2.61543e-14
2.17286e-14
1.81806e-14
1.54199e-14
1.33229e-14
5.77186e-14
5.73641e-14
5.665e-14
5.55675e-14
5.41063e-14
5.2259e-14
5.00253e-14
4.74181e-14
4.44685e-14
4.12299e-14
3.77798e-14
3.42168e-14
3.06541e-14
2.7208e-14
2.3985e-14
2.10697e-14
1.85159e-14
1.63447e-14
1.45477e-14
1.30951e-14
3.71323e-14
3.69609e-14
3.66156e-14
3.60913e-14
3.53822e-14
3.44829e-14
3.33905e-14
3.21072e-14
3.06428e-14
2.90164e-14
2.72577e-14
2.54072e-14
2.35134e-14
2.163e-14
1.981e-14
1.81011e-14
1.65406e-14
1.51533e-14
1.39502e-14
1.29306e-14
2.69883e-14
2.68975e-14
2.67143e-14
2.64358e-14
2.60585e-14
2.55787e-14
2.49937e-14
2.43027e-14
2.35085e-14
2.26181e-14
2.16435e-14
2.06026e-14
1.95176e-14
1.84148e-14
1.73218e-14
1.62657e-14
1.52706e-14
1.43554e-14
1.35333e-14
1.28111e-14
2.15172e-14
2.14653e-14
2.13604e-14
2.1201e-14
2.09846e-14
2.07089e-14
2.03717e-14
1.99718e-14
1.95096e-14
1.89875e-14
1.84108e-14
1.77876e-14
1.71289e-14
1.64482e-14
1.57605e-14
1.50816e-14
1.44265e-14
1.38085e-14
1.32385e-14
1.27241e-14
1.83459e-14
1.83144e-14
1.82506e-14
1.81537e-14
1.8022e-14
1.7854e-14
1.7648e-14
1.74031e-14
1.71188e-14
1.6796e-14
1.6437e-14
1.60457e-14
1.56278e-14
1.51905e-14
1.47425e-14
1.42931e-14
1.38517e-14
1.34275e-14
1.30283e-14
1.26605e-14
1.64014e-14
1.63813e-14
1.63407e-14
1.62789e-14
1.6195e-14
1.60878e-14
1.59563e-14
1.57996e-14
1.56173e-14
1.54095e-14
1.51772e-14
1.49225e-14
1.46485e-14
1.43592e-14
1.40598e-14
1.37559e-14
1.34536e-14
1.31589e-14
1.28774e-14
1.26141e-14
1.51567e-14
1.51434e-14
1.51166e-14
1.50759e-14
1.50205e-14
1.49497e-14
1.48629e-14
1.47593e-14
1.46386e-14
1.45007e-14
1.43461e-14
1.41759e-14
1.39918e-14
1.37963e-14
1.35925e-14
1.33838e-14
1.31743e-14
1.2968e-14
1.27688e-14
1.25803e-14
1.43338e-14
1.43248e-14
1.43067e-14
1.4279e-14
1.42415e-14
1.41936e-14
1.41348e-14
1.40647e-14
1.39829e-14
1.38894e-14
1.37843e-14
1.36684e-14
1.35426e-14
1.34085e-14
1.32679e-14
1.31232e-14
1.29769e-14
1.28317e-14
1.26904e-14
1.25556e-14
1.37767e-14
1.37705e-14
1.37579e-14
1.37389e-14
1.3713e-14
1.368e-14
1.36395e-14
1.35912e-14
1.35349e-14
1.34704e-14
1.3398e-14
1.3318e-14
1.3231e-14
1.3138e-14
1.30402e-14
1.29392e-14
1.28365e-14
1.27342e-14
1.26339e-14
1.25376e-14
1.3393e-14
1.33887e-14
1.33799e-14
1.33666e-14
1.33485e-14
1.33255e-14
1.32972e-14
1.32636e-14
1.32244e-14
1.31795e-14
1.31291e-14
1.30734e-14
1.30128e-14
1.29479e-14
1.28795e-14
1.28087e-14
1.27365e-14
1.26642e-14
1.25932e-14
1.25246e-14
1.31257e-14
1.31226e-14
1.31164e-14
1.31071e-14
1.30943e-14
1.30781e-14
1.30583e-14
1.30347e-14
1.30072e-14
1.29758e-14
1.29405e-14
1.29015e-14
1.2859e-14
1.28136e-14
1.27656e-14
1.27159e-14
1.26651e-14
1.26142e-14
1.25639e-14
1.25153e-14
1.2938e-14
1.29358e-14
1.29314e-14
1.29248e-14
1.29158e-14
1.29043e-14
1.28903e-14
1.28737e-14
1.28543e-14
1.28323e-14
1.28075e-14
1.27801e-14
1.27504e-14
1.27185e-14
1.26848e-14
1.26499e-14
1.26142e-14
1.25784e-14
1.25429e-14
1.25085e-14
1.28056e-14
1.2804e-14
1.28009e-14
1.27962e-14
1.27898e-14
1.27817e-14
1.27718e-14
1.27601e-14
1.27465e-14
1.27309e-14
1.27135e-14
1.26943e-14
1.26734e-14
1.26511e-14
1.26275e-14
1.2603e-14
1.2578e-14
1.25528e-14
1.25279e-14
1.25037e-14
1.2712e-14
1.27109e-14
1.27087e-14
1.27054e-14
1.27009e-14
1.26951e-14
1.26881e-14
1.26799e-14
1.26703e-14
1.26594e-14
1.26471e-14
1.26337e-14
1.2619e-14
1.26034e-14
1.25869e-14
1.25698e-14
1.25523e-14
1.25346e-14
1.25172e-14
1.25002e-14
1.26459e-14
1.26451e-14
1.26436e-14
1.26412e-14
1.2638e-14
1.2634e-14
1.2629e-14
1.26232e-14
1.26165e-14
1.26088e-14
1.26003e-14
1.25908e-14
1.25806e-14
1.25697e-14
1.25582e-14
1.25463e-14
1.25341e-14
1.25218e-14
1.25096e-14
1.24978e-14
1.25993e-14
1.25987e-14
1.25976e-14
1.25959e-14
1.25937e-14
1.25908e-14
1.25874e-14
1.25833e-14
1.25786e-14
1.25732e-14
1.25672e-14
1.25607e-14
1.25536e-14
1.2546e-14
1.2538e-14
1.25297e-14
1.25212e-14
1.25127e-14
1.25043e-14
1.2496e-14
1.25664e-14
1.2566e-14
1.25653e-14
1.25641e-14
1.25625e-14
1.25605e-14
1.25581e-14
1.25553e-14
1.2552e-14
1.25482e-14
1.25441e-14
1.25395e-14
1.25346e-14
1.25293e-14
1.25238e-14
1.25181e-14
1.25122e-14
1.25063e-14
1.25005e-14
1.24948e-14
1.25434e-14
1.25431e-14
1.25426e-14
1.25418e-14
1.25407e-14
1.25393e-14
1.25376e-14
1.25356e-14
1.25333e-14
1.25307e-14
1.25279e-14
1.25247e-14
1.25213e-14
1.25177e-14
1.25139e-14
1.25099e-14
1.25059e-14
1.25019e-14
1.24979e-14
1.2494e-14
1.25273e-14
1.25271e-14
1.25268e-14
1.25262e-14
1.25254e-14
1.25245e-14
1.25233e-14
1.25219e-14
1.25204e-14
1.25186e-14
1.25166e-14
1.25144e-14
1.25121e-14
1.25096e-14
1.2507e-14
1.25043e-14
1.25015e-14
1.24988e-14
1.2496e-14
1.24934e-14
1.25162e-14
1.2516e-14
1.25158e-14
1.25154e-14
1.25148e-14
1.25142e-14
1.25134e-14
1.25124e-14
1.25114e-14
1.25101e-14
1.25088e-14
1.25073e-14
1.25057e-14
1.2504e-14
1.25022e-14
1.25004e-14
1.24985e-14
1.24966e-14
1.24948e-14
1.2493e-14
1.25084e-14
1.25083e-14
1.25082e-14
1.25079e-14
1.25075e-14
1.25071e-14
1.25065e-14
1.25059e-14
1.25051e-14
1.25043e-14
1.25034e-14
1.25024e-14
1.25013e-14
1.25002e-14
1.24989e-14
1.24977e-14
1.24964e-14
1.24952e-14
1.24939e-14
1.24927e-14
1.25031e-14
1.25031e-14
1.25029e-14
1.25028e-14
1.25025e-14
1.25022e-14
1.25018e-14
1.25014e-14
1.25009e-14
1.25003e-14
1.24997e-14
1.2499e-14
1.24983e-14
1.24975e-14
1.24967e-14
1.24959e-14
1.2495e-14
1.24942e-14
1.24933e-14
1.24925e-14
1.24995e-14
1.24995e-14
1.24994e-14
1.24993e-14
1.24991e-14
1.24989e-14
1.24986e-14
1.24983e-14
1.2498e-14
1.24976e-14
1.24972e-14
1.24967e-14
1.24962e-14
1.24957e-14
1.24952e-14
1.24946e-14
1.2494e-14
1.24935e-14
1.24929e-14
1.24923e-14
1.2497e-14
1.2497e-14
1.2497e-14
1.24969e-14
1.24968e-14
1.24966e-14
1.24964e-14
1.24962e-14
1.2496e-14
1.24958e-14
1.24955e-14
1.24952e-14
1.24948e-14
1.24945e-14
1.24941e-14
1.24938e-14
1.24934e-14
1.2493e-14
1.24926e-14
1.24923e-14
1.24954e-14
1.24954e-14
1.24953e-14
1.24953e-14
1.24952e-14
1.24951e-14
1.2495e-14
1.24948e-14
1.24947e-14
1.24945e-14
1.24943e-14
1.24941e-14
1.24939e-14
1.24937e-14
1.24934e-14
1.24932e-14
1.24929e-14
1.24927e-14
1.24924e-14
1.24922e-14
1.24943e-14
1.24943e-14
1.24942e-14
1.24942e-14
1.24941e-14
1.24941e-14
1.2494e-14
1.24939e-14
1.24938e-14
1.24937e-14
1.24936e-14
1.24934e-14
1.24933e-14
1.24931e-14
1.2493e-14
1.24928e-14
1.24927e-14
1.24925e-14
1.24923e-14
1.24922e-14
1.24935e-14
1.24935e-14
1.24935e-14
1.24935e-14
1.24934e-14
1.24934e-14
1.24934e-14
1.24933e-14
1.24932e-14
1.24932e-14
1.24931e-14
1.2493e-14
1.24929e-14
1.24928e-14
1.24927e-14
1.24926e-14
1.24925e-14
1.24923e-14
1.24922e-14
1.24921e-14
1.2493e-14
1.2493e-14
1.2493e-14
1.2493e-14
1.2493e-14
1.2493e-14
1.24929e-14
1.24929e-14
1.24928e-14
1.24928e-14
1.24927e-14
1.24927e-14
1.24926e-14
1.24925e-14
1.24925e-14
1.24924e-14
1.24923e-14
1.24923e-14
1.24922e-14
1.24921e-14
1.24927e-14
1.24927e-14
1.24927e-14
1.24927e-14
1.24927e-14
1.24927e-14
1.24927e-14
1.24926e-14
1.24926e-14
1.24926e-14
1.24925e-14
1.24925e-14
1.24924e-14
1.24924e-14
1.24924e-14
1.24923e-14
1.24923e-14
1.24922e-14
1.24922e-14
1.24921e-14
1.24926e-14
1.24926e-14
1.24926e-14
1.24926e-14
1.24925e-14
1.24925e-14
1.24925e-14
1.24925e-14
1.24925e-14
1.24924e-14
1.24924e-14
1.24924e-14
1.24923e-14
1.24923e-14
1.24923e-14
1.24922e-14
1.24922e-14
1.24922e-14
1.24921e-14
1.24921e-14
1.24925e-14
1.24925e-14
1.24925e-14
1.24925e-14
1.24925e-14
1.24925e-14
1.24924e-14
1.24924e-14
1.24924e-14
1.24924e-14
1.24924e-14
1.24923e-14
1.24923e-14
1.24923e-14
1.24922e-14
1.24922e-14
1.24922e-14
1.24922e-14
1.24921e-14
1.24921e-14
)
;

boundaryField
{
    topWall
    {
        type            zeroGradient;
    }
    bottomWall
    {
        type            zeroGradient;
    }
    sideWallL
    {
        type            symmetry;
    }
    sideWallR
    {
        type            calculated;
        value           uniform 0;
    }
    frontAndBack
    {
        type            empty;
    }
}


// ************************************************************************* //
