/*--------------------------------*- C++ -*----------------------------------*\
  =========                 |
  \\      /  F ield         | OpenFOAM: The Open Source CFD Toolbox
   \\    /   O peration     | Website:  https://openfoam.org
    \\  /    A nd           | Version:  7
     \\/     M anipulation  |
\*---------------------------------------------------------------------------*/
FoamFile
{
    version     2.0;
    format      ascii;
    class       volScalarField;
    location    "24";
    object      rhot2;
}
// * * * * * * * * * * * * * * * * * * * * * * * * * * * * * * * * * * * * * //

dimensions      [1 -3 0 0 0 0 0];

internalField   nonuniform List<scalar> 
900
(
3.24549e-07
3.2405e-07
3.23014e-07
3.21363e-07
3.18969e-07
3.15647e-07
3.11139e-07
3.05092e-07
2.97027e-07
2.86308e-07
2.72095e-07
2.53307e-07
2.28611e-07
1.96514e-07
1.55773e-07
1.06628e-07
5.40604e-08
1.32164e-08
3.49395e-10
8.04948e-16
1.92311e-09
1.91334e-09
1.8932e-09
1.86139e-09
1.81599e-09
1.75436e-09
1.67318e-09
1.56861e-09
1.43661e-09
1.27379e-09
1.07886e-09
8.55148e-10
6.14108e-10
3.78665e-10
1.82492e-10
5.76336e-11
8.33687e-12
2.48546e-13
2.12829e-16
2.70798e-23
1.21597e-11
1.20493e-11
1.18229e-11
1.14698e-11
1.09749e-11
1.03199e-11
9.48665e-12
8.46234e-12
7.24795e-12
5.87059e-12
4.39774e-12
2.94723e-12
1.67894e-12
7.49631e-13
2.29493e-13
3.82918e-14
2.31059e-15
2.36722e-17
1.03208e-20
2.70166e-26
8.75007e-14
8.63403e-14
8.39798e-14
8.03468e-14
7.53524e-14
6.89203e-14
6.1033e-14
5.17982e-14
4.15306e-14
3.08265e-14
2.0578e-14
1.18453e-14
5.52559e-15
1.90219e-15
4.18558e-16
4.70582e-17
1.90577e-18
1.63936e-20
1.50808e-23
1.27434e-27
7.63955e-16
7.50768e-16
7.24144e-16
6.837e-16
6.29165e-16
5.60777e-16
4.79833e-16
3.89337e-16
2.94531e-16
2.02919e-16
1.23241e-16
6.30408e-17
2.54662e-17
7.41463e-18
1.36651e-18
1.32868e-19
5.33325e-21
6.59403e-23
2.03328e-25
2.66515e-28
8.59131e-18
8.41308e-18
8.05578e-18
7.5195e-18
6.80896e-18
5.93889e-18
4.94062e-18
3.86785e-18
2.79819e-18
1.82548e-18
1.03912e-18
4.93755e-19
1.8455e-19
5.01363e-20
8.93046e-21
9.17182e-22
4.70019e-23
1.06753e-24
1.1271e-26
1.08346e-28
1.31121e-19
1.2805e-19
1.2193e-19
1.12835e-19
1.00959e-19
8.66937e-20
7.07221e-20
5.4067e-20
3.80456e-20
2.40683e-20
1.32763e-20
6.13905e-21
2.26382e-21
6.25837e-22
1.20569e-22
1.4962e-23
1.11885e-24
4.99744e-26
1.57178e-27
6.1939e-29
2.83249e-21
2.7614e-21
2.62036e-21
2.41236e-21
2.14358e-21
1.82509e-21
1.47433e-21
1.11547e-21
7.77379e-22
4.88586e-22
2.69716e-22
1.26609e-22
4.86236e-23
1.46213e-23
3.28841e-24
5.31942e-25
6.10609e-26
5.23815e-27
4.07242e-28
4.29785e-29
8.92612e-23
8.69689e-23
8.24339e-23
7.57767e-23
6.72277e-23
5.7173e-23
4.61898e-23
3.5041e-23
2.4602e-23
1.5703e-23
8.9194e-24
4.39816e-24
1.83182e-24
6.26697e-25
1.71973e-25
3.745e-26
6.59579e-27
1.01415e-27
1.60877e-28
3.35635e-29
4.17862e-24
4.07339e-24
3.86545e-24
3.56076e-24
3.17025e-24
2.71171e-24
2.21099e-24
1.70156e-24
1.22131e-24
8.06074e-25
4.81387e-25
2.55617e-25
1.18597e-25
4.73701e-26
1.61662e-26
4.74953e-27
1.24307e-27
3.12264e-28
8.47386e-29
2.82751e-29
2.92715e-25
2.85779e-25
2.7207e-25
2.51966e-25
2.26152e-25
1.95734e-25
1.62305e-25
1.27928e-25
9.49585e-26
6.56871e-26
4.18724e-26
2.43257e-26
1.2759e-26
6.01103e-27
2.55123e-27
9.91583e-28
3.65715e-28
1.35578e-28
5.42972e-29
2.50517e-29
3.06429e-26
2.99884e-26
2.86926e-26
2.67866e-26
2.43274e-26
2.14071e-26
1.81603e-26
1.4764e-26
1.14256e-26
8.35684e-27
5.73631e-27
3.67328e-27
2.18666e-27
1.2112e-27
6.29205e-28
3.11964e-28
1.51897e-28
7.54315e-29
3.97679e-29
2.29742e-29
4.75323e-27
4.66585e-27
4.4924e-27
4.23612e-27
3.90307e-27
3.50338e-27
3.05225e-27
2.57031e-27
2.08273e-27
1.61672e-27
1.19763e-27
8.44539e-28
5.66899e-28
3.63527e-28
2.24591e-28
1.35587e-28
8.15578e-29
4.99978e-29
3.19241e-29
2.15819e-29
1.07336e-27
1.0572e-27
1.02502e-27
9.77211e-28
9.14561e-28
8.38466e-28
7.51137e-28
6.55725e-28
5.56269e-28
4.57432e-28
3.63973e-28
2.8008e-28
2.08712e-28
1.51195e-28
1.07203e-28
7.51301e-29
5.26788e-29
3.74425e-29
2.73062e-29
2.06228e-29
3.41822e-28
3.37807e-28
3.29788e-28
3.17806e-28
3.01972e-28
2.82508e-28
2.59805e-28
2.34462e-28
2.073e-28
1.79332e-28
1.51684e-28
1.25472e-28
1.01656e-28
8.09152e-29
6.35758e-29
4.96191e-29
3.87532e-29
3.05221e-29
2.44154e-29
1.99491e-29
1.46307e-28
1.45021e-28
1.42444e-28
1.38574e-28
1.3342e-28
1.27017e-28
1.19442e-28
1.10827e-28
1.01373e-28
9.1344e-29
8.10624e-29
7.08775e-29
6.11316e-29
5.21216e-29
4.4066e-29
3.70879e-29
3.12148e-29
2.63955e-29
2.25246e-29
1.94695e-29
7.93702e-29
7.88624e-29
7.78428e-29
7.63053e-29
7.4245e-29
7.16632e-29
6.85733e-29
6.50071e-29
6.1019e-29
5.66898e-29
5.21249e-29
4.7449e-29
4.2797e-29
3.83011e-29
3.40781e-29
3.02187e-29
2.67816e-29
2.37926e-29
2.12487e-29
1.91247e-29
5.14724e-29
5.12365e-29
5.07619e-29
5.0044e-29
4.90776e-29
4.78586e-29
4.63872e-29
4.46701e-29
4.27228e-29
4.05724e-29
3.82573e-29
3.58271e-29
3.33397e-29
3.0857e-29
2.84403e-29
2.61446e-29
2.4015e-29
2.20834e-29
2.03682e-29
1.88755e-29
3.79655e-29
3.78415e-29
3.75918e-29
3.72132e-29
3.67018e-29
3.6054e-29
3.52672e-29
3.43419e-29
3.32821e-29
3.20973e-29
3.08027e-29
2.94198e-29
2.79753e-29
2.65001e-29
2.50269e-29
2.35882e-29
2.22138e-29
2.09284e-29
1.97512e-29
1.86945e-29
3.06577e-29
3.05863e-29
3.04424e-29
3.0224e-29
2.99284e-29
2.95528e-29
2.90948e-29
2.85533e-29
2.79289e-29
2.7225e-29
2.6448e-29
2.56078e-29
2.47176e-29
2.37936e-29
2.28541e-29
2.19182e-29
2.10051e-29
2.0132e-29
1.93141e-29
1.85629e-29
2.63704e-29
2.63265e-29
2.62379e-29
2.61034e-29
2.59212e-29
2.56892e-29
2.54057e-29
2.50694e-29
2.46799e-29
2.42384e-29
2.37477e-29
2.32127e-29
2.26403e-29
2.20394e-29
2.14207e-29
2.07957e-29
2.01766e-29
1.95751e-29
1.90022e-29
1.84672e-29
2.37036e-29
2.36753e-29
2.36182e-29
2.35314e-29
2.34137e-29
2.32639e-29
2.30805e-29
2.28625e-29
2.26095e-29
2.23217e-29
2.20004e-29
2.16482e-29
2.12689e-29
2.08677e-29
2.0451e-29
2.00259e-29
1.96003e-29
1.91821e-29
1.87789e-29
1.83977e-29
2.1974e-29
2.19551e-29
2.1917e-29
2.18592e-29
2.17807e-29
2.16807e-29
2.15584e-29
2.14128e-29
2.12437e-29
2.10509e-29
2.08352e-29
2.05979e-29
2.03413e-29
2.00685e-29
1.97835e-29
1.94908e-29
1.91955e-29
1.8903e-29
1.86186e-29
1.83472e-29
2.08185e-29
2.08056e-29
2.07796e-29
2.07401e-29
2.06866e-29
2.06185e-29
2.05351e-29
2.04359e-29
2.03205e-29
2.0189e-29
2.00416e-29
1.98792e-29
1.97032e-29
1.95154e-29
1.93185e-29
1.91154e-29
1.89095e-29
1.87043e-29
1.85035e-29
1.83107e-29
2.00305e-29
2.00216e-29
2.00036e-29
1.99762e-29
1.99392e-29
1.9892e-29
1.98344e-29
1.97658e-29
1.96861e-29
1.95953e-29
1.94935e-29
1.93812e-29
1.92593e-29
1.91291e-29
1.89923e-29
1.88507e-29
1.87066e-29
1.85626e-29
1.8421e-29
1.82843e-29
1.94856e-29
1.94794e-29
1.94668e-29
1.94476e-29
1.94217e-29
1.93888e-29
1.93486e-29
1.93009e-29
1.92454e-29
1.91822e-29
1.91114e-29
1.90333e-29
1.89485e-29
1.88578e-29
1.87624e-29
1.86635e-29
1.85627e-29
1.84616e-29
1.83619e-29
1.82654e-29
1.91055e-29
1.91011e-29
1.90922e-29
1.90788e-29
1.90606e-29
1.90375e-29
1.90093e-29
1.89759e-29
1.89371e-29
1.8893e-29
1.88435e-29
1.8789e-29
1.87299e-29
1.86667e-29
1.86001e-29
1.8531e-29
1.84605e-29
1.83897e-29
1.83197e-29
1.82518e-29
1.8839e-29
1.88359e-29
1.88296e-29
1.88202e-29
1.88074e-29
1.87911e-29
1.87713e-29
1.87479e-29
1.87207e-29
1.86899e-29
1.86553e-29
1.86173e-29
1.8576e-29
1.85319e-29
1.84855e-29
1.84373e-29
1.83881e-29
1.83387e-29
1.82897e-29
1.82422e-29
1.86517e-29
1.86495e-29
1.86451e-29
1.86384e-29
1.86294e-29
1.8618e-29
1.86041e-29
1.85877e-29
1.85687e-29
1.85471e-29
1.8523e-29
1.84965e-29
1.84677e-29
1.8437e-29
1.84047e-29
1.83712e-29
1.8337e-29
1.83026e-29
1.82685e-29
1.82353e-29
1.85201e-29
1.85185e-29
1.85154e-29
1.85107e-29
1.85044e-29
1.84964e-29
1.84867e-29
1.84752e-29
1.84619e-29
1.84469e-29
1.84301e-29
1.84116e-29
1.83917e-29
1.83704e-29
1.8348e-29
1.83247e-29
1.8301e-29
1.82771e-29
1.82535e-29
1.82305e-29
1.84277e-29
1.84266e-29
1.84244e-29
1.84212e-29
1.84167e-29
1.84111e-29
1.84044e-29
1.83964e-29
1.83871e-29
1.83767e-29
1.8365e-29
1.83522e-29
1.83384e-29
1.83237e-29
1.83082e-29
1.82921e-29
1.82757e-29
1.82593e-29
1.82429e-29
1.8227e-29
1.83631e-29
1.83623e-29
1.83608e-29
1.83585e-29
1.83554e-29
1.83515e-29
1.83468e-29
1.83413e-29
1.83349e-29
1.83276e-29
1.83196e-29
1.83107e-29
1.83012e-29
1.82911e-29
1.82804e-29
1.82694e-29
1.82581e-29
1.82468e-29
1.82356e-29
1.82247e-29
1.8318e-29
1.83175e-29
1.83164e-29
1.83148e-29
1.83127e-29
1.831e-29
1.83067e-29
1.83029e-29
1.82985e-29
1.82935e-29
1.8288e-29
1.82819e-29
1.82754e-29
1.82684e-29
1.82611e-29
1.82536e-29
1.82459e-29
1.82381e-29
1.82305e-29
1.8223e-29
1.82867e-29
1.82864e-29
1.82856e-29
1.82845e-29
1.82831e-29
1.82812e-29
1.8279e-29
1.82763e-29
1.82733e-29
1.82699e-29
1.82661e-29
1.82619e-29
1.82575e-29
1.82527e-29
1.82478e-29
1.82426e-29
1.82374e-29
1.82321e-29
1.82269e-29
1.82219e-29
1.82651e-29
1.82649e-29
1.82644e-29
1.82636e-29
1.82626e-29
1.82613e-29
1.82598e-29
1.8258e-29
1.82559e-29
1.82536e-29
1.8251e-29
1.82482e-29
1.82452e-29
1.8242e-29
1.82386e-29
1.82351e-29
1.82316e-29
1.8228e-29
1.82245e-29
1.82211e-29
1.82503e-29
1.82501e-29
1.82498e-29
1.82493e-29
1.82486e-29
1.82477e-29
1.82467e-29
1.82454e-29
1.8244e-29
1.82425e-29
1.82407e-29
1.82388e-29
1.82368e-29
1.82346e-29
1.82323e-29
1.823e-29
1.82276e-29
1.82252e-29
1.82228e-29
1.82205e-29
1.82401e-29
1.824e-29
1.82398e-29
1.82394e-29
1.8239e-29
1.82384e-29
1.82377e-29
1.82369e-29
1.82359e-29
1.82349e-29
1.82337e-29
1.82324e-29
1.8231e-29
1.82296e-29
1.8228e-29
1.82265e-29
1.82249e-29
1.82233e-29
1.82217e-29
1.82202e-29
1.82333e-29
1.82332e-29
1.8233e-29
1.82328e-29
1.82325e-29
1.82321e-29
1.82316e-29
1.8231e-29
1.82304e-29
1.82297e-29
1.82289e-29
1.82281e-29
1.82271e-29
1.82262e-29
1.82252e-29
1.82241e-29
1.82231e-29
1.8222e-29
1.82209e-29
1.82199e-29
1.82286e-29
1.82286e-29
1.82285e-29
1.82283e-29
1.82281e-29
1.82278e-29
1.82275e-29
1.82271e-29
1.82267e-29
1.82262e-29
1.82257e-29
1.82251e-29
1.82245e-29
1.82239e-29
1.82232e-29
1.82225e-29
1.82218e-29
1.82211e-29
1.82204e-29
1.82197e-29
1.82255e-29
1.82255e-29
1.82254e-29
1.82253e-29
1.82252e-29
1.8225e-29
1.82248e-29
1.82245e-29
1.82242e-29
1.82239e-29
1.82236e-29
1.82232e-29
1.82228e-29
1.82224e-29
1.82219e-29
1.82215e-29
1.8221e-29
1.82205e-29
1.82201e-29
1.82196e-29
1.82234e-29
1.82234e-29
1.82234e-29
1.82233e-29
1.82232e-29
1.82231e-29
1.8223e-29
1.82228e-29
1.82226e-29
1.82224e-29
1.82222e-29
1.82219e-29
1.82217e-29
1.82214e-29
1.82211e-29
1.82208e-29
1.82205e-29
1.82202e-29
1.82199e-29
1.82196e-29
1.82221e-29
1.82221e-29
1.82221e-29
1.8222e-29
1.8222e-29
1.82219e-29
1.82218e-29
1.82217e-29
1.82215e-29
1.82214e-29
1.82213e-29
1.82211e-29
1.82209e-29
1.82207e-29
1.82205e-29
1.82203e-29
1.82201e-29
1.82199e-29
1.82197e-29
1.82195e-29
1.82213e-29
1.82213e-29
1.82212e-29
1.82212e-29
1.82212e-29
1.82211e-29
1.8221e-29
1.8221e-29
1.82209e-29
1.82208e-29
1.82207e-29
1.82206e-29
1.82204e-29
1.82203e-29
1.82202e-29
1.822e-29
1.82199e-29
1.82198e-29
1.82196e-29
1.82195e-29
1.82208e-29
1.82208e-29
1.82207e-29
1.82207e-29
1.82207e-29
1.82207e-29
1.82206e-29
1.82205e-29
1.82205e-29
1.82204e-29
1.82203e-29
1.82203e-29
1.82202e-29
1.82201e-29
1.822e-29
1.82199e-29
1.82198e-29
1.82197e-29
1.82196e-29
1.82195e-29
1.82205e-29
1.82205e-29
1.82205e-29
1.82205e-29
1.82205e-29
1.82204e-29
1.82204e-29
1.82204e-29
1.82203e-29
1.82202e-29
1.82202e-29
1.82201e-29
1.822e-29
1.822e-29
1.82199e-29
1.82198e-29
1.82197e-29
1.82196e-29
1.82195e-29
1.82195e-29
)
;

boundaryField
{
    topWall
    {
        type            zeroGradient;
    }
    bottomWall
    {
        type            zeroGradient;
    }
    sideWallL
    {
        type            symmetry;
    }
    sideWallR
    {
        type            zeroGradient;
    }
    frontAndBack
    {
        type            empty;
    }
}


// ************************************************************************* //
