/*--------------------------------*- C++ -*----------------------------------*\
  =========                 |
  \\      /  F ield         | OpenFOAM: The Open Source CFD Toolbox
   \\    /   O peration     | Website:  https://openfoam.org
    \\  /    A nd           | Version:  7
     \\/     M anipulation  |
\*---------------------------------------------------------------------------*/
FoamFile
{
    version     2.0;
    format      ascii;
    class       volScalarField;
    location    "24";
    object      T;
}
// * * * * * * * * * * * * * * * * * * * * * * * * * * * * * * * * * * * * * //

dimensions      [0 0 0 1 0 0 0];

internalField   nonuniform List<scalar> 
900
(
493.955
493.943
493.919
493.88
493.823
493.743
493.635
493.488
493.289
493.017
492.643
492.122
491.38
490.296
488.647
485.991
481.317
471.925
449.305
383.092
460.816
460.782
460.712
460.599
460.436
460.209
459.899
459.48
458.914
458.144
457.092
455.635
453.584
450.635
446.269
439.563
428.771
410.447
377.796
319.115
432.046
431.992
431.881
431.704
431.448
431.092
430.609
429.957
429.082
427.902
426.302
424.116
421.09
416.844
410.778
401.941
388.817
369.074
339.573
297.845
407.133
407.063
406.919
406.689
406.357
405.898
405.277
404.446
403.336
401.856
399.875
397.209
393.597
388.666
381.882
372.495
359.488
341.646
317.932
288.62
385.632
385.55
385.381
385.111
384.723
384.19
383.473
382.519
381.258
379.595
377.399
374.496
370.65
365.547
358.776
349.825
338.114
323.127
304.725
283.695
367.147
367.057
366.871
366.576
366.153
365.574
364.801
363.782
362.448
360.709
358.447
355.511
351.706
346.791
340.481
332.46
322.441
310.27
296.113
280.68
351.322
351.228
351.033
350.726
350.287
349.691
348.899
347.865
346.525
344.8
342.589
339.77
336.192
331.684
326.06
319.146
310.822
301.096
290.201
278.672
337.836
337.741
337.545
337.238
336.801
336.21
335.432
334.423
333.13
331.486
329.41
326.806
323.565
319.57
314.711
308.898
302.102
294.394
285.987
277.264
326.399
326.307
326.117
325.819
325.398
324.831
324.09
323.138
321.931
320.413
318.523
316.188
313.334
309.884
305.776
300.973
295.489
289.406
282.901
276.241
316.751
316.663
316.484
316.203
315.808
315.279
314.593
313.719
312.62
311.256
309.578
307.534
305.075
302.153
298.737
294.818
290.426
285.64
280.596
275.482
308.655
308.574
308.408
308.15
307.788
307.306
306.685
305.901
304.924
303.724
302.264
300.51
298.428
295.991
293.186
290.019
286.523
282.766
278.85
274.909
301.9
301.826
301.676
301.444
301.119
300.689
300.139
299.448
298.597
297.56
296.312
294.831
293.093
291.087
288.808
286.268
283.499
280.556
277.515
274.471
296.295
296.23
296.097
295.891
295.605
295.229
294.749
294.152
293.422
292.54
291.49
290.256
288.824
287.19
285.354
283.33
281.147
278.847
276.487
274.135
291.672
291.615
291.499
291.321
291.073
290.748
290.338
289.83
289.212
288.473
287.601
286.585
285.418
284.098
282.63
281.028
279.314
277.521
275.692
273.876
287.882
287.833
287.734
287.58
287.369
287.094
286.747
286.32
285.806
285.194
284.478
283.65
282.708
281.651
280.486
279.224
277.884
276.49
275.076
273.675
284.793
284.752
284.667
284.538
284.361
284.13
283.841
283.487
283.063
282.563
281.981
281.313
280.559
279.719
278.8
277.812
276.768
275.689
274.598
273.519
282.291
282.257
282.186
282.079
281.931
281.74
281.502
281.212
280.867
280.462
279.993
279.46
278.861
278.199
277.478
276.708
275.899
275.066
274.226
273.398
280.277
280.249
280.191
280.102
279.981
279.825
279.631
279.396
279.118
278.793
278.419
277.996
277.524
277.006
276.444
275.847
275.223
274.582
273.939
273.305
278.666
278.643
278.596
278.524
278.425
278.299
278.143
277.955
277.732
277.474
277.179
276.846
276.477
276.073
275.638
275.178
274.698
274.208
273.716
273.232
277.385
277.367
277.329
277.271
277.192
277.091
276.966
276.816
276.64
276.437
276.205
275.946
275.659
275.347
275.012
274.659
274.292
273.918
273.544
273.177
276.374
276.359
276.329
276.282
276.22
276.14
276.041
275.923
275.785
275.626
275.446
275.245
275.024
274.784
274.527
274.258
273.979
273.695
273.411
273.134
275.58
275.568
275.544
275.508
275.458
275.395
275.318
275.226
275.119
274.996
274.857
274.702
274.532
274.349
274.154
273.949
273.738
273.524
273.31
273.101
274.961
274.952
274.933
274.904
274.866
274.817
274.757
274.686
274.603
274.508
274.402
274.283
274.154
274.015
273.867
273.713
273.554
273.393
273.232
273.075
274.481
274.474
274.459
274.437
274.408
274.37
274.324
274.269
274.206
274.133
274.052
273.962
273.865
273.76
273.649
273.533
273.414
273.293
273.173
273.056
274.112
274.106
274.095
274.078
274.055
274.027
273.991
273.95
273.902
273.847
273.785
273.718
273.644
273.566
273.483
273.396
273.307
273.218
273.129
273.042
273.83
273.825
273.817
273.804
273.787
273.765
273.738
273.706
273.67
273.629
273.583
273.532
273.477
273.419
273.357
273.293
273.227
273.161
273.095
273.031
273.615
273.612
273.605
273.596
273.583
273.566
273.546
273.522
273.495
273.464
273.43
273.393
273.352
273.308
273.263
273.215
273.167
273.118
273.07
273.023
273.453
273.451
273.446
273.439
273.429
273.416
273.401
273.384
273.364
273.341
273.316
273.288
273.258
273.226
273.192
273.158
273.122
273.086
273.051
273.017
273.332
273.33
273.326
273.321
273.314
273.304
273.293
273.28
273.266
273.249
273.23
273.21
273.188
273.164
273.14
273.115
273.089
273.063
273.037
273.012
273.241
273.24
273.237
273.233
273.228
273.221
273.213
273.204
273.193
273.18
273.167
273.152
273.136
273.119
273.101
273.083
273.064
273.045
273.027
273.009
273.174
273.173
273.171
273.169
273.165
273.16
273.154
273.147
273.139
273.13
273.12
273.109
273.098
273.086
273.073
273.06
273.046
273.033
273.019
273.006
273.125
273.125
273.123
273.121
273.118
273.115
273.11
273.105
273.1
273.093
273.086
273.078
273.07
273.061
273.052
273.043
273.033
273.023
273.014
273.004
273.089
273.089
273.088
273.086
273.084
273.082
273.079
273.075
273.071
273.066
273.061
273.056
273.05
273.043
273.037
273.03
273.023
273.017
273.01
273.003
273.063
273.063
273.062
273.061
273.06
273.058
273.056
273.053
273.05
273.047
273.043
273.039
273.035
273.031
273.026
273.021
273.017
273.012
273.007
273.002
273.045
273.044
273.044
273.043
273.042
273.041
273.039
273.037
273.035
273.033
273.03
273.028
273.025
273.022
273.018
273.015
273.012
273.008
273.005
273.002
273.031
273.031
273.031
273.03
273.029
273.028
273.027
273.026
273.025
273.023
273.021
273.019
273.017
273.015
273.013
273.01
273.008
273.006
273.003
273.001
273.022
273.022
273.021
273.021
273.02
273.02
273.019
273.018
273.017
273.016
273.015
273.013
273.012
273.01
273.009
273.007
273.006
273.004
273.002
273.001
273.015
273.015
273.015
273.014
273.014
273.014
273.013
273.013
273.012
273.011
273.01
273.009
273.008
273.007
273.006
273.005
273.004
273.003
273.002
273.001
273.01
273.01
273.01
273.01
273.01
273.009
273.009
273.009
273.008
273.008
273.007
273.006
273.006
273.005
273.004
273.003
273.003
273.002
273.001
273
273.007
273.007
273.007
273.007
273.007
273.006
273.006
273.006
273.006
273.005
273.005
273.004
273.004
273.003
273.003
273.002
273.002
273.001
273.001
273
273.005
273.005
273.005
273.005
273.005
273.004
273.004
273.004
273.004
273.004
273.003
273.003
273.003
273.002
273.002
273.002
273.001
273.001
273.001
273
273.003
273.003
273.003
273.003
273.003
273.003
273.003
273.003
273.003
273.002
273.002
273.002
273.002
273.002
273.001
273.001
273.001
273.001
273
273
273.002
273.002
273.002
273.002
273.002
273.002
273.002
273.002
273.002
273.002
273.002
273.001
273.001
273.001
273.001
273.001
273.001
273
273
273
273.002
273.002
273.002
273.002
273.002
273.002
273.002
273.002
273.001
273.001
273.001
273.001
273.001
273.001
273.001
273.001
273
273
273
273
273.002
273.002
273.002
273.001
273.001
273.001
273.001
273.001
273.001
273.001
273.001
273.001
273.001
273.001
273.001
273.001
273
273
273
273
)
;

boundaryField
{
    topWall
    {
        type            zeroGradient;
    }
    bottomWall
    {
        type            codedFixedValue;
        value           uniform 513;
        name            heating;
        code            #{
            const scalar t = this->db().time().value();
            const scalar Ttemp = 273 + 10*t;
            operator==(Ttemp);
        #};
    }
    sideWallL
    {
        type            symmetry;
    }
    sideWallR
    {
        type            fixedValue;
        value           uniform 273;
    }
    frontAndBack
    {
        type            empty;
    }
}


// ************************************************************************* //
