/*--------------------------------*- C++ -*----------------------------------*\
  =========                 |
  \\      /  F ield         | OpenFOAM: The Open Source CFD Toolbox
   \\    /   O peration     | Website:  https://openfoam.org
    \\  /    A nd           | Version:  7
     \\/     M anipulation  |
\*---------------------------------------------------------------------------*/
FoamFile
{
    version     2.0;
    format      ascii;
    class       volScalarField;
    location    "37";
    object      gradTy;
}
// * * * * * * * * * * * * * * * * * * * * * * * * * * * * * * * * * * * * * //

dimensions      [0 -1 0 1 0 0 0];

internalField   nonuniform List<scalar> 
900
(
-299759
-300080
-300740
-301774
-303239
-305218
-307828
-311229
-315643
-321378
-328868
-338737
-351912
-369826
-394858
-431358
-488413
-588041
-790908
-1.26784e+06
-211312
-211553
-212048
-212823
-213920
-215400
-217351
-219892
-223187
-227466
-233053
-240411
-250218
-263480
-281693
-306965
-341575
-384559
-414518
-317788
-168154
-168363
-168792
-169461
-170402
-171664
-173310
-175428
-178130
-181567
-185934
-191480
-198507
-207349
-218239
-230886
-243146
-247171
-219665
-111500
-149561
-149743
-150115
-150691
-151495
-152560
-153925
-155645
-157779
-160395
-163559
-167312
-171621
-176271
-180629
-183151
-180418
-165537
-126690
-51243.6
-134624
-134764
-135047
-135481
-136078
-136852
-137820
-138996
-140387
-141984
-143742
-145547
-147153
-148073
-147397
-143495
-133647
-113805
-79349.4
-28736.6
-120503
-120596
-120783
-121066
-121445
-121919
-122481
-123116
-123790
-124439
-124950
-125125
-124635
-122938
-119186
-112109
-99976.5
-80810.4
-53235.2
-18315.3
-107115
-107164
-107260
-107399
-107573
-107769
-107964
-108120
-108179
-108046
-107577
-106550
-104636
-101357
-96052.1
-87866.9
-75834.3
-59132.5
-37625.3
-12631.6
-94588.8
-94598
-94612.8
-94624.8
-94620.3
-94577.3
-94463
-94228.3
-93801.2
-93077.8
-91909.5
-90087.9
-87328.7
-83257.5
-77410.2
-69265
-58337.7
-44371.7
-27625.4
-9158.13
-83020.3
-82995.9
-82942.1
-82848.4
-82697.2
-82462.2
-82105.8
-81574.4
-80794.3
-79664.3
-78049
-75771
-72605.6
-68281.5
-62496
-54955
-45448.8
-33969.9
-20852.5
-6863.99
-72456.1
-72405
-72297.1
-72120.8
-71857
-71478.3
-70946.2
-70208.4
-69195.8
-67818.2
-65961.2
-63483.3
-60217.4
-55978.3
-50580.2
-43871.8
-35787.9
-26416.6
-16061.9
-5264.3
-62903.8
-62832.8
-62685.2
-62449.1
-62105.8
-61628.5
-60981.2
-60116.1
-58972.6
-57474.8
-55530.9
-53033.6
-49864.6
-45903.2
-41042.6
-35215.6
-28427.6
-20792.3
-12558
-4104.36
-54340.7
-54256.4
-54082.3
-53807.3
-53414
-52877.9
-52166.9
-51239.6
-50045.3
-48522.8
-46601.6
-44203.4
-41247.7
-37659.6
-33382.9
-28397.3
-22738.9
-16517.8
-9928.03
-3238.6
-46723.3
-46631.3
-46442.4
-46146.5
-45728.1
-45166.1
-44432.7
-43493.8
-42308.2
-40828.5
-39002.2
-36774.2
-34091.8
-30911.2
-27207.1
-22984
-18287.8
-13214.9
-7914.15
-2578.12
-39993.7
-39898.8
-39704.6
-39402.5
-38979.3
-38416.9
-37692.7
-36779.1
-35643.9
-34251.3
-32563.4
-30542.7
-28156.3
-25380.5
-22208.3
-18655.8
-14769.2
-10628.7
-6347.73
-2065.74
-34085.9
-33991.8
-33799.9
-33503
-33090.1
-32546.5
-31854
-30991
-29933
-28653.8
-27126.7
-25327.2
-23235.7
-20841.5
-18147.6
-15174.6
-11964.4
-8582.24
-5114.41
-1663.08
-28929.5
-28839
-28655
-28371.6
-27979.9
-27468.3
-26822.5
-26026
-25060.7
-23907.7
-22549
-20969.1
-19157.5
-17111.4
-14838.6
-12360.4
-9713.27
-6949.18
-4134.04
-1343.46
-24453.2
-24368.3
-24196
-23931.8
-23568.5
-23097.2
-22507
-21785.5
-20919.5
-19896.2
-18703.5
-17332.4
-15778.1
-14042.4
-12135.2
-10076.4
-7896.67
-5637.39
-3348.94
-1087.78
-20587.1
-20509
-20351
-20109.3
-19778.6
-19352
-18821.4
-18177.9
-17412.1
-16515.2
-15480
-14301.4
-12978.4
-11515.2
-9922
-8216.66
-6424.52
-4578.27
-2716.6
-882.022
-17264.3
-17193.7
-17051
-16833.5
-16537.1
-16156.8
-15686.5
-15120
-14450.8
-13673.3
-12783.2
-11778.4
-10659.9
-9433.02
-8107.56
-6698.87
-5227.69
-3719.83
-2205.09
-715.697
-14421.6
-14358.7
-14231.7
-14038.7
-13776.7
-13441.9
-13030.1
-12537
-11958.3
-11290.5
-10531.5
-9680.95
-8741.08
-7717.3
-6618.65
-5458.08
-4252.44
-3022.07
-1789.99
-580.799
-12000.6
-11945.2
-11833.7
-11664.6
-11435.6
-11144.2
-10787.5
-10362.4
-9866.51
-9297.72
-8655.25
-7939.84
-7154.29
-6303.8
-5396.34
-4442.72
-3456.54
-2453.81
-1452.39
-471.136
-9947.83
-9899.66
-9802.76
-9656.07
-9458.08
-9206.99
-8900.84
-8537.77
-8116.23
-7635.32
-7095.08
-6496.84
-5843.53
-5139.96
-4392.96
-3611.47
-2806.43
-1990.46
-1177.44
-381.858
-8214.7
-8173.21
-8089.86
-7963.89
-7794.3
-7579.88
-7319.38
-7011.69
-6656.02
-6252.15
-5800.62
-5303.04
-4762.26
-4182.54
-3569.68
-2931.01
-2275.28
-1612.46
-953.339
-309.119
-6757.62
-6722.22
-6651.16
-6543.95
-6399.92
-6218.3
-5998.37
-5739.52
-5441.46
-5104.39
-4729.14
-4317.37
-3871.73
-3395.9
-2894.76
-2374.27
-1841.44
-1304.1
-770.678
-249.847
-5537.75
-5507.79
-5447.71
-5357.19
-5235.83
-5083.16
-4898.8
-4682.5
-4434.3
-4154.62
-3844.42
-3505.31
-3139.64
-2750.58
-2342.16
-1919.21
-1487.33
-1052.68
-621.854
-201.568
-4520.68
-4495.53
-4445.12
-4369.27
-4267.74
-4140.31
-3986.8
-3807.2
-3601.74
-3370.96
-3115.83
-2837.85
-2539.06
-2222.14
-1890.4
-1547.74
-1198.62
-847.898
-500.708
-162.277
-3676.19
-3655.23
-3613.23
-3550.12
-3465.77
-3360.09
-3233.08
-3084.85
-2915.72
-2726.29
-2517.48
-2290.63
-2047.49
-1790.3
-1521.76
-1245.01
-963.593
-681.323
-402.218
-130.34
-2977.88
-2960.52
-2925.78
-2873.6
-2803.97
-2716.88
-2612.42
-2490.76
-2352.29
-2197.59
-2027.51
-1843.19
-1646.15
-1438.22
-1221.59
-998.787
-772.607
-546.059
-322.278
-104.423
-2402.81
-2388.53
-2359.96
-2317.1
-2259.97
-2188.62
-2103.19
-2003.9
-1891.12
-1765.4
-1627.49
-1478.39
-1319.35
-1151.87
-977.738
-798.954
-617.734
-436.44
-257.52
-83.4322
-1931.16
-1919.48
-1896.13
-1861.14
-1814.54
-1756.42
-1686.94
-1606.32
-1514.93
-1413.25
-1301.95
-1181.85
-1054
-919.624
-780.147
-637.17
-492.438
-347.804
-205.177
-66.4676
-1545.9
-1536.41
-1517.45
-1489.04
-1451.24
-1404.16
-1347.95
-1282.83
-1209.14
-1127.3
-1037.87
-941.548
-839.187
-731.783
-620.475
-506.532
-391.328
-276.311
-162.971
-52.7904
-1232.5
-1224.83
-1209.51
-1186.57
-1156.09
-1118.15
-1072.91
-1020.59
-961.454
-895.886
-824.353
-747.434
-665.819
-580.31
-491.816
-401.338
-309.955
-218.799
-129.028
-41.7921
-978.564
-972.401
-960.093
-941.679
-917.222
-886.817
-850.602
-808.762
-761.542
-709.258
-652.3
-591.142
-526.34
-458.537
-388.453
-316.876
-244.652
-172.662
-101.804
-32.9723
-773.62
-768.695
-758.863
-744.16
-724.645
-700.406
-671.563
-638.277
-600.757
-559.265
-514.121
-465.711
-414.481
-360.942
-305.662
-249.26
-192.396
-135.755
-80.0325
-25.9192
-608.834
-604.921
-597.111
-585.437
-569.952
-550.733
-527.883
-501.541
-471.879
-439.114
-403.506
-365.366
-325.049
-282.959
-239.544
-195.287
-150.7
-106.314
-62.6686
-20.2946
-476.795
-473.704
-467.536
-458.322
-446.106
-430.954
-412.955
-392.222
-368.9
-343.163
-315.222
-285.325
-253.753
-220.824
-186.887
-152.319
-117.517
-82.8915
-48.8563
-15.8208
-371.302
-368.876
-364.038
-356.812
-347.236
-335.367
-321.276
-305.059
-286.832
-266.736
-244.939
-221.637
-197.051
-171.431
-145.047
-118.191
-91.1694
-64.2975
-37.8933
-12.2702
-287.187
-285.298
-281.531
-275.907
-268.458
-259.229
-248.28
-235.688
-221.545
-205.965
-189.08
-171.043
-152.028
-132.228
-111.851
-91.123
-70.278
-49.5573
-29.2037
-9.45603
-220.146
-218.69
-215.785
-211.45
-205.711
-198.604
-190.177
-180.491
-169.62
-157.652
-144.691
-130.855
-116.28
-101.113
-85.5135
-69.6537
-53.7119
-37.8713
-22.3155
-7.2254
-166.597
-165.489
-163.28
-159.984
-155.622
-150.222
-143.822
-136.47
-128.224
-119.151
-109.331
-98.8551
-87.8257
-76.3548
-64.5636
-52.5811
-40.5415
-28.5822
-16.8409
-5.45262
-123.548
-122.723
-121.078
-118.623
-115.376
-111.358
-106.598
-101.132
-95.0039
-88.2651
-80.9756
-73.2033
-65.0243
-56.522
-47.7863
-38.9124
-29.9993
-21.148
-12.4599
-4.03407
-88.4832
-87.8902
-86.708
-84.9446
-82.6118
-79.7261
-76.3087
-72.3861
-67.9899
-63.1578
-57.9329
-52.3644
-46.507
-40.4204
-34.169
-27.8208
-21.4464
-15.1176
-8.9065
-2.88355
-59.2608
-58.8626
-58.0687
-56.8847
-55.3187
-53.382
-51.089
-48.4577
-45.5097
-42.2703
-38.7688
-35.0383
-31.1155
-27.0405
-22.8562
-18.6083
-14.3437
-10.1104
-5.95628
-1.92836
-34.018
-33.789
-33.3325
-32.6516
-31.7513
-30.6379
-29.32
-27.8079
-26.1142
-24.2535
-22.2427
-20.1008
-17.849
-15.5103
-13.1094
-10.6724
-8.22611
-5.79809
-3.41573
-1.10584
-11.0867
-11.012
-10.8631
-10.641
-10.3473
-9.98421
-9.55442
-9.06136
-8.50913
-7.90251
-7.24704
-6.54892
-5.81505
-5.05294
-4.27064
-3.47662
-2.67967
-1.88871
-1.11265
-0.360215
)
;

boundaryField
{
    topWall
    {
        type            calculated;
        value           uniform 0;
    }
    bottomWall
    {
        type            calculated;
        value           nonuniform List<scalar> 
20
(
-355930
-356308
-357083
-358297
-360015
-362335
-365390
-369364
-374508
-381168
-389824
-401156
-416157
-436360
-464374
-505419
-572415
-704059
-1.03459e+06
-2.05619e+06
)
;
    }
    sideWallL
    {
        type            symmetry;
    }
    sideWallR
    {
        type            calculated;
        value           nonuniform List<scalar> 
45
(
-1.26784e+06
-317788
-111500
-51243.6
-28736.6
-18315.3
-12631.6
-9158.13
-6863.99
-5264.3
-4104.36
-3238.6
-2578.12
-2065.74
-1663.08
-1343.46
-1087.78
-882.022
-715.697
-580.799
-471.136
-381.858
-309.119
-249.847
-201.568
-162.277
-130.34
-104.423
-83.4322
-66.4676
-52.7904
-41.7921
-32.9723
-25.9192
-20.2946
-15.8208
-12.2702
-9.45603
-7.2254
-5.45262
-4.03407
-2.88355
-1.92836
-1.10584
-0.360215
)
;
    }
    frontAndBack
    {
        type            empty;
    }
}


// ************************************************************************* //
