/*--------------------------------*- C++ -*----------------------------------*\
  =========                 |
  \\      /  F ield         | OpenFOAM: The Open Source CFD Toolbox
   \\    /   O peration     | Website:  https://openfoam.org
    \\  /    A nd           | Version:  7
     \\/     M anipulation  |
\*---------------------------------------------------------------------------*/
FoamFile
{
    version     2.0;
    format      ascii;
    class       volScalarField;
    location    "37";
    object      gradTx;
}
// * * * * * * * * * * * * * * * * * * * * * * * * * * * * * * * * * * * * * //

dimensions      [0 -1 0 1 0 0 0];

internalField   nonuniform List<scalar> 
900
(
-94.3851
-288.141
-497.234
-733.19
-1009.66
-1343.64
-1757.1
-2279.44
-2951.04
-3829.02
-4996.95
-6583.2
-8801.08
-12054.3
-17264.7
-27010.2
-49660.1
-115544
-338034
-1.0773e+06
-227.006
-693.157
-1196.69
-1765.89
-2434.5
-3245.05
-4253.37
-5535.48
-7198.18
-9396.36
-12362.5
-16460.2
-22287.3
-30892.5
-44267.2
-66544.2
-107023
-186951
-341761
-563953
-335.38
-1023.81
-1766.63
-2604.88
-3587.35
-4775.24
-6248.47
-8115.05
-10525.4
-13695.1
-17941.8
-23748
-31869.9
-43529.6
-60750.4
-86892.1
-127253
-188487
-271263
-344998
-436.252
-1330.97
-2293.94
-3376.21
-4637.87
-6153.09
-8016.97
-10355.2
-13338
-17200.8
-22274.7
-29033
-38156.7
-50624.5
-67803.9
-91451.4
-123308
-163470
-206091
-232788
-517.504
-1577.59
-2714.57
-3985.3
-5455.65
-7205.27
-9333.7
-11968.5
-15275.9
-19475.5
-24858.5
-31809.6
-40829
-52537.7
-67629.8
-86681.2
-109640
-134759
-156970
-167064
-575.669
-1753.25
-3011.05
-4407.63
-6009.56
-7895.35
-10160.2
-12921.5
-16325.9
-20556
-25838
-32443.7
-40683
-50868.6
-63226.1
-77702
-93617.7
-109172
-121022
-124702
-610.808
-1858.33
-3184.83
-4647.11
-6308.42
-8241.27
-10530.6
-13276.9
-16598.9
-20635.8
-25545.1
-31494.7
-38642
-47089
-56800.8
-67471.4
-78340.9
-88017.7
-94474.5
-95513.5
-624.679
-1898.46
-3246.42
-4721.11
-6379.71
-8285.83
-10511.1
-13136.4
-16251.6
-19954
-24342
-29503.1
-35490.5
-42284.9
-49735.7
-57484.2
-64883.4
-70962.6
-74521.1
-74445
-620.067
-1882.33
-3211.61
-4654.6
-6260.93
-8084.02
-10181.5
-12615.1
-15448.5
-18744.1
-22555.2
-26913.9
-31811.6
-37170.5
-42808.2
-48398.9
-53447.7
-57305.4
-59260.9
-58730.1
-600.32
-1820.35
-3098.91
-4476.11
-5993.55
-7694.44
-9623.33
-11824.9
-14341.4
-17208.7
-20448.8
-24059.7
-28000.9
-32175.3
-36409.3
-40436.9
-43898.3
-46366.3
-47415.1
-46728.6
-568.957
-1723.37
-2927.4
-4214.5
-5618.47
-7173.14
-8911.62
-10864.7
-13058.4
-15509.5
-18220.2
-21170.2
-24306.6
-27533.3
-30701.8
-33606.6
-35992.4
-37579.4
-38108.6
-37403.9
-529.376
-1601.79
-2715.18
-3896.67
-5172.99
-6569.84
-8110.93
-9816.34
-11700.1
-13766.9
-16007.6
-18393.5
-20870.5
-23353.3
-25721.8
-27821.9
-29474.9
-30496.6
-30727.2
-30066.2
-484.644
-1464.98
-2478.32
-3546.15
-4689.07
-5926.02
-7273.33
-8743.18
-10341.6
-12065.7
-13900.8
-15816.4
-17762.7
-19668.5
-21439.6
-22962.6
-24112.9
-24768.6
-24829.4
-24237.3
-437.38
-1320.87
-2230.34
-3182.43
-4192.6
-5274.42
-6438.63
-7691.82
-9034.87
-10460.9
-11953.3
-13483.1
-15007.5
-16468.6
-17794.5
-18902.6
-19705.9
-20123
-20090.4
-19574
-389.706
-1175.86
-1982.04
-2820.8
-3703.48
-4639.49
-5635.48
-6694.3
-7813.75
-8985.23
-10192.3
-11409.3
-12600.6
-13720.5
-14714.8
-15523.5
-16085.8
-16347.1
-16266.4
-15823.8
-343.253
-1034.86
-1741.55
-2472.61
-3236.13
-4038.38
-4883.12
-5770.81
-6697.64
-7654.62
-8626.71
-9592.06
-10521.8
-11380.6
-12127.6
-12719.4
-13113.5
-13273
-13171.3
-12796.5
-299.197
-901.364
-1514.64
-2145.73
-2800.22
-3482.1
-4193.17
-4932.42
-5695.39
-6473.53
-7253.69
-8017.78
-8742.85
-9401.66
-9963.9
-10398.1
-10674.5
-10767.8
-10660.7
-10346.3
-258.323
-777.694
-1305.06
-1845.11
-2401.58
-2976.82
-3571.35
-4183.37
-4808.35
-5438.57
-6062.9
-6666.66
-7231.83
-7737.63
-8161.56
-8480.89
-8674.55
-8725.28
-8621.65
-8359.78
-221.089
-665.185
-1114.87
-1573.34
-2042.97
-2524.96
-3019.04
-3523.07
-4032.77
-4541.43
-5039.84
-5516.23
-5956.62
-6345.22
-6665.4
-6900.67
-7036.14
-7059.91
-6964.46
-6747.68
-187.698
-564.401
-944.891
-1331.25
-1724.87
-2126.22
-2534.55
-2947.66
-3361.69
-3770.97
-4167.97
-4543.41
-4886.47
-5185.24
-5427.4
-5601.02
-5695.52
-5702.67
-5617.51
-5439
-158.155
-475.321
-794.946
-1118.31
-1446.13
-1778.4
-2114.13
-2451.22
-2786.31
-3114.67
-3430.27
-3725.8
-3992.96
-4222.79
-4406.18
-4534.47
-4600.13
-4597.46
-4523.19
-4376.88
-132.326
-397.509
-664.197
-933.103
-1204.5
-1478.09
-1752.8
-2026.71
-2296.97
-2559.7
-2810.09
-3042.45
-3250.43
-3427.3
-3566.32
-3661.21
-3706.6
-3698.53
-3634.84
-3515.47
-109.984
-330.253
-551.358
-773.628
-997.053
-1221.16
-1444.91
-1666.61
-1883.85
-2093.52
-2291.79
-2474.25
-2636.08
-2772.22
-2877.7
-2947.94
-2979.12
-2968.47
-2914.58
-2817.59
-90.841
-272.668
-454.878
-637.546
-820.489
-1003.17
-1184.61
-1363.36
-1537.43
-1704.3
-1860.99
-2004.09
-2129.93
-2234.72
-2314.79
-2366.81
-2388.06
-2376.59
-2331.5
-2253.01
-74.5827
-223.79
-373.084
-522.383
-671.408
-819.612
-966.122
-1109.7
-1248.73
-1381.2
-1504.77
-1616.84
-1714.61
-1795.26
-1856.06
-1894.61
-1908.94
-1897.71
-1860.33
-1797.06
-60.8847
-182.632
-304.281
-425.663
-546.457
-666.142
-783.953
-898.858
-1009.54
-1114.42
-1211.68
-1299.31
-1375.2
-1437.23
-1483.42
-1511.98
-1521.53
-1511.12
-1480.39
-1429.59
-49.4296
-148.229
-246.826
-345.008
-442.448
-538.67
-633.018
-724.64
-812.48
-895.292
-971.665
-1040.07
-1098.9
-1146.59
-1181.67
-1202.84
-1209.1
-1199.8
-1174.71
-1134.08
-39.9169
-119.672
-199.175
-278.198
-356.43
-433.45
-508.704
-581.496
-650.982
-716.188
-776.022
-829.316
-874.869
-911.504
-938.132
-953.817
-957.837
-949.744
-929.406
-897.029
-32.0693
-96.1229
-159.909
-223.205
-285.728
-347.112
-406.897
-464.519
-519.308
-570.504
-617.267
-658.708
-693.922
-722.034
-742.24
-753.856
-756.369
-749.467
-733.076
-707.378
-25.6357
-76.8233
-127.75
-178.21
-227.953
-276.669
-323.977
-369.424
-412.484
-452.563
-489.017
-521.172
-548.348
-569.892
-585.213
-593.813
-595.323
-589.53
-576.397
-556.077
-20.393
-61.1009
-101.568
-141.61
-181.01
-219.509
-256.798
-292.513
-326.241
-357.523
-385.867
-410.76
-431.692
-448.179
-459.785
-466.148
-467.003
-462.205
-451.74
-435.733
-16.1455
-48.3665
-80.3727
-112.004
-143.077
-173.376
-202.652
-230.617
-256.948
-281.29
-303.267
-322.492
-338.583
-351.18
-359.962
-364.665
-365.102
-361.173
-352.876
-340.316
-12.7237
-38.1103
-63.3103
-88.1875
-112.589
-136.338
-159.235
-181.052
-201.539
-220.422
-237.415
-252.225
-264.568
-274.176
-280.813
-284.287
-284.465
-281.278
-274.733
-264.914
-9.98256
-29.8957
-49.6504
-69.1323
-88.215
-106.756
-124.597
-141.558
-157.445
-172.048
-185.15
-196.531
-205.978
-213.292
-218.301
-220.865
-220.888
-218.326
-213.187
-205.539
-7.79891
-23.3532
-38.775
-53.9699
-68.8348
-83.2557
-97.1059
-110.246
-122.526
-133.786
-143.861
-152.585
-159.799
-165.357
-169.131
-171.021
-170.959
-168.914
-164.897
-158.962
-6.06944
-18.1724
-30.166
-41.9733
-53.5109
-64.688
-75.4049
-85.5534
-95.0175
-103.675
-111.402
-118.074
-123.572
-127.788
-130.628
-132.02
-131.916
-130.295
-127.167
-122.576
-4.70815
-14.0951
-23.3929
-32.5391
-41.4671
-50.1048
-58.3742
-66.1913
-73.4672
-80.109
-86.0226
-91.115
-95.298
-98.4914
-100.627
-101.652
-101.532
-100.253
-97.8266
-94.2848
-3.64415
-10.9086
-18.1011
-25.1712
-32.0659
-38.7285
-45.0978
-51.1091
-56.6942
-61.7824
-66.3028
-70.1858
-73.3656
-75.7831
-77.3882
-78.1427
-78.0222
-77.0184
-75.1397
-72.4124
-2.81961
-8.43964
-14.0016
-19.4655
-24.789
-29.9274
-34.8332
-39.4563
-43.7443
-47.6437
-51.1008
-54.0633
-56.4825
-58.3144
-59.5223
-60.0786
-59.966
-59.1791
-57.7253
-55.6251
-2.18787
-6.54817
-10.8618
-15.0967
-19.2193
-23.1944
-26.9849
-30.5518
-33.855
-36.8535
-39.5067
-41.7753
-43.6227
-45.0164
-45.9293
-46.3412
-46.2398
-45.622
-44.4938
-42.8715
-1.71189
-5.12316
-8.49675
-11.8068
-15.0265
-18.1279
-21.0818
-23.8578
-26.4246
-28.7508
-30.8054
-32.5583
-33.9821
-35.0522
-35.7487
-36.0565
-35.9671
-35.4784
-34.5957
-33.3316
-1.36281
-4.07817
-6.76264
-9.39512
-11.9539
-14.4163
-16.7589
-18.9577
-20.9881
-22.8252
-24.4449
-25.8241
-26.9414
-27.7784
-28.3197
-28.5541
-28.4755
-28.0825
-27.3799
-26.3775
-1.11889
-3.34802
-5.55114
-7.71054
-9.80804
-11.8249
-13.7418
-15.5389
-17.1963
-18.6938
-20.012
-21.1324
-22.0381
-22.7143
-23.1491
-23.3339
-23.2639
-22.9385
-22.3616
-21.5416
-0.964575
-2.88613
-4.7848
-6.64509
-8.4511
-10.1865
-11.8347
-13.3784
-14.8007
-16.0844
-17.2129
-18.1707
-18.9436
-19.5191
-19.8875
-20.0416
-19.9775
-19.6952
-19.1978
-18.4929
-0.889866
-2.66251
-4.41382
-6.12934
-7.79431
-9.39362
-10.9118
-12.3331
-13.6418
-14.8223
-15.8593
-16.7387
-17.4476
-17.9747
-18.3112
-18.4506
-18.3896
-18.1281
-17.6694
-17.02
)
;

boundaryField
{
    topWall
    {
        type            calculated;
        value           nonuniform List<scalar> 
20
(
-0.889866
-2.66251
-4.41382
-6.12934
-7.79431
-9.39362
-10.9118
-12.3331
-13.6418
-14.8223
-15.8593
-16.7387
-17.4476
-17.9747
-18.3112
-18.4506
-18.3896
-18.1281
-17.6694
-17.02
)
;
    }
    bottomWall
    {
        type            calculated;
        value           nonuniform List<scalar> 
20
(
-94.3851
-288.141
-497.234
-733.19
-1009.66
-1343.64
-1757.1
-2279.44
-2951.04
-3829.02
-4996.95
-6583.2
-8801.08
-12054.3
-17264.7
-27010.2
-49660.1
-115544
-338034
-1.0773e+06
)
;
    }
    sideWallL
    {
        type            symmetry;
    }
    sideWallR
    {
        type            calculated;
        value           nonuniform List<scalar> 
45
(
-1.64381e+06
-684853
-372653
-238851
-167679
-123905
-94418
-73378.6
-57785.5
-45922.7
-36728.3
-29505.2
-23773.9
-19192.7
-15511
-12540.4
-10137.1
-8189.32
-6609.05
-5326.53
-4285.86
-3441.99
-2758.43
-2205.51
-1759.04
-1399.24
-1109.93
-877.879
-692.24
-544.15
-426.369
-332.989
-259.201
-201.1
-155.524
-119.922
-92.2409
-70.8409
-54.4168
-41.9393
-32.6063
-25.803
-21.0721
-18.0896
-16.6487
)
;
    }
    frontAndBack
    {
        type            empty;
    }
}


// ************************************************************************* //
