/*--------------------------------*- C++ -*----------------------------------*\
  =========                 |
  \\      /  F ield         | OpenFOAM: The Open Source CFD Toolbox
   \\    /   O peration     | Website:  https://openfoam.org
    \\  /    A nd           | Version:  7
     \\/     M anipulation  |
\*---------------------------------------------------------------------------*/
FoamFile
{
    version     2.0;
    format      ascii;
    class       volScalarField;
    location    "37";
    object      rhoc;
}
// * * * * * * * * * * * * * * * * * * * * * * * * * * * * * * * * * * * * * //

dimensions      [1 -3 0 0 0 0 0];

internalField   nonuniform List<scalar> 
900
(
0.000448042
0.000446888
0.000444523
0.000440833
0.000435637
0.000428684
0.000419633
0.000408046
0.000393365
0.000374902
0.000351824
0.000323168
0.000287884
0.000244963
0.000193723
0.000134564
7.14744e-05
1.92177e-05
5.6497e-07
6.95325e-13
5.40369e-06
5.35969e-06
5.27029e-06
5.13273e-06
4.94308e-06
4.69648e-06
4.38772e-06
4.01218e-06
3.56747e-06
3.0558e-06
2.48756e-06
1.88566e-06
1.28955e-06
7.5545e-07
3.46424e-07
1.04888e-07
1.47009e-08
4.13688e-10
2.44993e-13
3.05305e-21
9.3375e-08
9.20368e-08
8.93445e-08
8.5272e-08
7.97964e-08
7.29191e-08
6.46977e-08
5.5288e-08
4.49946e-08
3.43168e-08
2.39655e-08
1.48062e-08
7.67715e-09
3.07243e-09
8.2565e-10
1.16741e-10
5.52865e-12
3.62381e-14
5.46568e-18
7.01492e-25
1.59582e-09
1.56196e-09
1.49463e-09
1.39475e-09
1.26429e-09
1.1068e-09
9.28152e-10
7.37168e-10
5.45832e-10
3.6855e-10
2.19905e-10
1.10798e-10
4.40685e-11
1.24901e-11
2.14955e-12
1.7372e-13
4.32522e-15
1.66036e-17
3.38623e-21
1.40357e-26
2.66906e-11
2.59368e-11
2.44552e-11
2.23026e-11
1.95739e-11
1.64119e-11
1.30122e-11
9.61929e-12
6.50369e-12
3.91642e-12
2.02471e-12
8.53413e-13
2.72501e-13
5.92837e-14
7.52715e-15
4.4455e-16
8.79632e-18
3.72582e-20
2.0633e-23
1.73369e-27
4.56428e-13
4.40478e-13
4.09497e-13
3.65377e-13
3.11054e-13
2.50522e-13
1.88657e-13
1.30738e-13
8.1608e-14
4.4582e-14
2.05028e-14
7.53062e-15
2.05629e-15
3.78553e-16
4.1151e-17
2.21469e-18
4.72566e-20
3.13756e-22
5.65481e-25
4.99285e-28
8.39219e-15
8.049e-15
7.38949e-15
6.46729e-15
5.36131e-15
4.17125e-15
3.00787e-15
1.97687e-15
1.15834e-15
5.87841e-16
2.4878e-16
8.35734e-17
2.0903e-17
3.58569e-18
3.80625e-19
2.21198e-20
6.17779e-22
7.52153e-24
4.24495e-26
2.25234e-28
1.7434e-16
1.66365e-16
1.5118e-16
1.30273e-16
1.05744e-16
8.00977e-17
5.59059e-17
3.53648e-17
1.98464e-17
9.61493e-18
3.88505e-18
1.25404e-18
3.06652e-19
5.33066e-20
6.12566e-21
4.31517e-22
1.75285e-23
4.08381e-25
6.41962e-27
1.32009e-28
4.28464e-18
4.0737e-18
3.6749e-18
3.13229e-18
2.50614e-18
1.86517e-18
1.2757e-18
7.89491e-19
4.33518e-19
2.06156e-19
8.24285e-20
2.67493e-20
6.76243e-21
1.27271e-21
1.70273e-22
1.55813e-23
9.62164e-25
4.21321e-26
1.60585e-27
9.10792e-29
1.29711e-19
1.23067e-19
1.10566e-19
9.36905e-20
7.44227e-20
5.49517e-20
3.73021e-20
2.29577e-20
1.25938e-20
6.03302e-21
2.4641e-21
8.35082e-22
2.2802e-22
4.8711e-23
7.94142e-24
9.76537e-25
9.21844e-26
7.23514e-27
5.80784e-28
6.99077e-29
5.00072e-21
4.74225e-21
4.25712e-21
3.60465e-21
2.86311e-21
2.11732e-21
1.44386e-21
8.97237e-22
5.00941e-22
2.47199e-22
1.05861e-22
3.85825e-23
1.17395e-23
2.93378e-24
5.96936e-25
9.95699e-26
1.41247e-26
1.86795e-27
2.75528e-28
5.7675e-29
2.5178e-22
2.39015e-22
2.15059e-22
1.82833e-22
1.46171e-22
1.09195e-22
7.56125e-23
4.80661e-23
2.77387e-23
1.43534e-23
6.57301e-24
2.63007e-24
9.09627e-25
2.70261e-25
6.91809e-26
1.55503e-26
3.21506e-27
6.67933e-28
1.59461e-28
5.00378e-29
1.68374e-23
1.60222e-23
1.44893e-23
1.24198e-23
1.00513e-23
7.64033e-24
5.42013e-24
3.56176e-24
2.15012e-24
1.18198e-24
5.86697e-25
2.6108e-25
1.03726e-25
3.68447e-26
1.18287e-26
3.52163e-27
1.01948e-27
3.08667e-28
1.0666e-28
4.49968e-29
1.50913e-24
1.44116e-24
1.31287e-24
1.13854e-24
9.37035e-25
7.28943e-25
5.33416e-25
3.65184e-25
2.32562e-25
1.37005e-25
7.43183e-26
3.70225e-26
1.69528e-26
7.18294e-27
2.85934e-27
1.09875e-27
4.24608e-28
1.73796e-28
7.92419e-29
4.15311e-29
1.81737e-25
1.74322e-25
1.60258e-25
1.40982e-25
1.18408e-25
9.46688e-26
7.18079e-26
5.14882e-26
3.47775e-26
2.20645e-26
1.31288e-26
7.33186e-27
3.85947e-27
1.9331e-27
9.36276e-28
4.49069e-28
2.1989e-28
1.13557e-28
6.35371e-29
3.90749e-29
2.93309e-26
2.82776e-26
2.62681e-26
2.34857e-26
2.01782e-26
1.66273e-26
1.31132e-26
9.87751e-27
7.09451e-27
4.85503e-27
3.16775e-27
1.97631e-27
1.18599e-27
6.91327e-28
3.96996e-28
2.28664e-28
1.3478e-28
8.28462e-29
5.38588e-29
3.72941e-29
6.30376e-27
6.11086e-27
5.74047e-27
5.22195e-27
4.59559e-27
3.90836e-27
3.20864e-27
2.54073e-27
1.93988e-27
1.42901e-27
1.01762e-27
7.03157e-28
4.74263e-28
3.14868e-28
2.07969e-28
1.38326e-28
9.37966e-29
6.55404e-29
4.75581e-29
3.59808e-29
1.78448e-27
1.73959e-27
1.65284e-27
1.53003e-27
1.37927e-27
1.21023e-27
1.03325e-27
8.58311e-28
6.94077e-28
5.47079e-28
4.21286e-28
3.18081e-28
2.36635e-28
1.74551e-28
1.28597e-28
9.53603e-29
7.17058e-29
5.50219e-29
4.3283e-29
3.49995e-29
6.53275e-28
6.40262e-28
6.14954e-28
5.78743e-28
5.33601e-28
4.81941e-28
4.26432e-28
3.69783e-28
3.14509e-28
2.62731e-28
2.16015e-28
1.75307e-28
1.40942e-28
1.12743e-28
9.01606e-29
7.24346e-29
5.87321e-29
4.82526e-29
4.02902e-29
3.42591e-29
3.00648e-28
2.96061e-28
2.87089e-28
2.74128e-28
2.57747e-28
2.38656e-28
2.1767e-28
1.95648e-28
1.73439e-28
1.51819e-28
1.31436e-28
1.12777e-28
9.61503e-29
8.16879e-29
6.93738e-29
5.90786e-29
5.06008e-29
4.37036e-29
3.81448e-29
3.36965e-29
1.67623e-28
1.65712e-28
1.61956e-28
1.56484e-28
1.49487e-28
1.41207e-28
1.3193e-28
1.21967e-28
1.11645e-28
1.01278e-28
9.11548e-29
8.15203e-29
7.2564e-29
6.44147e-29
5.71415e-29
5.07611e-29
4.52475e-29
4.05449e-29
3.65789e-29
3.32667e-29
1.08775e-28
1.07861e-28
1.06057e-28
1.03412e-28
9.99979e-29
9.59072e-29
9.1253e-29
8.61629e-29
8.07747e-29
7.52296e-29
6.96649e-29
6.42075e-29
5.8967e-29
5.40319e-29
4.94669e-29
4.53131e-29
4.15894e-29
3.82965e-29
3.54205e-29
3.29372e-29
7.91773e-29
7.86894e-29
7.77235e-29
7.62996e-29
7.44478e-29
7.22078e-29
6.96288e-29
6.6768e-29
6.36896e-29
6.04617e-29
5.71543e-29
5.38356e-29
5.05697e-29
4.74129e-29
4.44127e-29
4.16058e-29
3.90183e-29
3.66658e-29
3.45547e-29
3.26839e-29
6.27186e-29
6.24348e-29
6.18717e-29
6.10382e-29
5.99482e-29
5.86199e-29
5.70769e-29
5.53468e-29
5.34619e-29
5.14574e-29
4.9371e-29
4.72413e-29
4.51063e-29
4.30017e-29
4.09601e-29
3.90095e-29
3.71724e-29
3.54663e-29
3.39029e-29
3.24889e-29
5.2832e-29
5.26557e-29
5.23054e-29
5.17852e-29
5.11021e-29
5.02652e-29
4.92864e-29
4.81802e-29
4.69638e-29
4.56565e-29
4.42798e-29
4.28563e-29
4.14093e-29
3.99618e-29
3.85357e-29
3.71512e-29
3.58259e-29
3.45748e-29
3.34095e-29
3.23388e-29
4.65348e-29
4.64198e-29
4.61908e-29
4.585e-29
4.54012e-29
4.4849e-29
4.42001e-29
4.34624e-29
4.26456e-29
4.1761e-29
4.08213e-29
3.98403e-29
3.88327e-29
3.78136e-29
3.67977e-29
3.57995e-29
3.4832e-29
3.39071e-29
3.30347e-29
3.22232e-29
4.23427e-29
4.22647e-29
4.21093e-29
4.18778e-29
4.15722e-29
4.11951e-29
4.07504e-29
4.02427e-29
3.96777e-29
3.90623e-29
3.84044e-29
3.77127e-29
3.69968e-29
3.62666e-29
3.55324e-29
3.48043e-29
3.40919e-29
3.34042e-29
3.27494e-29
3.21342e-29
3.94577e-29
3.94033e-29
3.9295e-29
3.91333e-29
3.89196e-29
3.86554e-29
3.8343e-29
3.79852e-29
3.75857e-29
3.71487e-29
3.66793e-29
3.61833e-29
3.56669e-29
3.5137e-29
3.46007e-29
3.40652e-29
3.35374e-29
3.30242e-29
3.25318e-29
3.20657e-29
3.74224e-29
3.73837e-29
3.73066e-29
3.71914e-29
3.7039e-29
3.68503e-29
3.66268e-29
3.63702e-29
3.60831e-29
3.5768e-29
3.54285e-29
3.50683e-29
3.46919e-29
3.43038e-29
3.39091e-29
3.35129e-29
3.31203e-29
3.27364e-29
3.23659e-29
3.20132e-29
3.59599e-29
3.5932e-29
3.58762e-29
3.5793e-29
3.56827e-29
3.5546e-29
3.5384e-29
3.51977e-29
3.49888e-29
3.47592e-29
3.45112e-29
3.42473e-29
3.39707e-29
3.36846e-29
3.33926e-29
3.30984e-29
3.28057e-29
3.25182e-29
3.22395e-29
3.1973e-29
3.48948e-29
3.48744e-29
3.48337e-29
3.47729e-29
3.46922e-29
3.45923e-29
3.44737e-29
3.43372e-29
3.4184e-29
3.40153e-29
3.38329e-29
3.36384e-29
3.34341e-29
3.32223e-29
3.30056e-29
3.27866e-29
3.2568e-29
3.23527e-29
3.21432e-29
3.19422e-29
3.41116e-29
3.40966e-29
3.40666e-29
3.40218e-29
3.39625e-29
3.38889e-29
3.38015e-29
3.37009e-29
3.35879e-29
3.34634e-29
3.33285e-29
3.31846e-29
3.30332e-29
3.2876e-29
3.27148e-29
3.25516e-29
3.23884e-29
3.22272e-29
3.207e-29
3.19188e-29
3.35318e-29
3.35207e-29
3.34985e-29
3.34654e-29
3.34215e-29
3.33671e-29
3.33024e-29
3.3228e-29
3.31443e-29
3.30521e-29
3.29521e-29
3.28454e-29
3.2733e-29
3.26162e-29
3.24962e-29
3.23746e-29
3.22528e-29
3.21322e-29
3.20145e-29
3.19009e-29
3.31008e-29
3.30925e-29
3.30761e-29
3.30515e-29
3.3019e-29
3.29786e-29
3.29306e-29
3.28754e-29
3.28133e-29
3.27449e-29
3.26707e-29
3.25915e-29
3.2508e-29
3.24211e-29
3.23319e-29
3.22413e-29
3.21504e-29
3.20604e-29
3.19724e-29
3.18874e-29
3.27795e-29
3.27734e-29
3.27612e-29
3.27429e-29
3.27188e-29
3.26888e-29
3.26532e-29
3.26122e-29
3.25661e-29
3.25153e-29
3.24602e-29
3.24013e-29
3.23393e-29
3.22748e-29
3.22084e-29
3.2141e-29
3.20734e-29
3.20063e-29
3.19406e-29
3.18771e-29
3.25399e-29
3.25354e-29
3.25263e-29
3.25127e-29
3.24948e-29
3.24725e-29
3.2446e-29
3.24156e-29
3.23814e-29
3.23436e-29
3.23027e-29
3.22591e-29
3.2213e-29
3.21651e-29
3.21158e-29
3.20658e-29
3.20155e-29
3.19656e-29
3.19167e-29
3.18694e-29
3.23613e-29
3.23579e-29
3.23512e-29
3.23411e-29
3.23277e-29
3.23112e-29
3.22915e-29
3.22689e-29
3.22435e-29
3.22156e-29
3.21852e-29
3.21528e-29
3.21187e-29
3.20831e-29
3.20466e-29
3.20094e-29
3.19721e-29
3.19351e-29
3.18988e-29
3.18636e-29
3.22285e-29
3.2226e-29
3.22209e-29
3.22134e-29
3.22035e-29
3.21912e-29
3.21766e-29
3.21598e-29
3.2141e-29
3.21202e-29
3.20977e-29
3.20737e-29
3.20484e-29
3.2022e-29
3.19949e-29
3.19674e-29
3.19398e-29
3.19123e-29
3.18854e-29
3.18593e-29
3.21301e-29
3.21282e-29
3.21245e-29
3.21189e-29
3.21115e-29
3.21024e-29
3.20915e-29
3.2079e-29
3.2065e-29
3.20496e-29
3.20329e-29
3.20151e-29
3.19963e-29
3.19768e-29
3.19567e-29
3.19363e-29
3.19158e-29
3.18954e-29
3.18754e-29
3.18561e-29
3.20577e-29
3.20563e-29
3.20535e-29
3.20494e-29
3.20438e-29
3.2037e-29
3.20289e-29
3.20196e-29
3.20092e-29
3.19977e-29
3.19852e-29
3.1972e-29
3.1958e-29
3.19435e-29
3.19285e-29
3.19133e-29
3.18981e-29
3.1883e-29
3.18681e-29
3.18537e-29
3.20051e-29
3.20041e-29
3.2002e-29
3.19988e-29
3.19947e-29
3.19895e-29
3.19835e-29
3.19765e-29
3.19686e-29
3.196e-29
3.19506e-29
3.19407e-29
3.19302e-29
3.19193e-29
3.19081e-29
3.18967e-29
3.18853e-29
3.18739e-29
3.18628e-29
3.1852e-29
3.19678e-29
3.19669e-29
3.19653e-29
3.19629e-29
3.19597e-29
3.19558e-29
3.19511e-29
3.19458e-29
3.19398e-29
3.19332e-29
3.1926e-29
3.19184e-29
3.19104e-29
3.19021e-29
3.18935e-29
3.18849e-29
3.18761e-29
3.18675e-29
3.1859e-29
3.18508e-29
3.19423e-29
3.19417e-29
3.19404e-29
3.19385e-29
3.1936e-29
3.19328e-29
3.19291e-29
3.19249e-29
3.19202e-29
3.19149e-29
3.19093e-29
3.19033e-29
3.1897e-29
3.18904e-29
3.18836e-29
3.18768e-29
3.18699e-29
3.18631e-29
3.18564e-29
3.18499e-29
3.19265e-29
3.1926e-29
3.19249e-29
3.19233e-29
3.19212e-29
3.19186e-29
3.19155e-29
3.1912e-29
3.1908e-29
3.19036e-29
3.18989e-29
3.18939e-29
3.18886e-29
3.18831e-29
3.18775e-29
3.18718e-29
3.18661e-29
3.18604e-29
3.18548e-29
3.18494e-29
3.1919e-29
3.19185e-29
3.19175e-29
3.1916e-29
3.19141e-29
3.19118e-29
3.1909e-29
3.19058e-29
3.19022e-29
3.18982e-29
3.18939e-29
3.18894e-29
3.18846e-29
3.18797e-29
3.18746e-29
3.18694e-29
3.18642e-29
3.18591e-29
3.18541e-29
3.18492e-29
)
;

boundaryField
{
    topWall
    {
        type            zeroGradient;
    }
    bottomWall
    {
        type            zeroGradient;
    }
    sideWallL
    {
        type            symmetry;
    }
    sideWallR
    {
        type            zeroGradient;
    }
    frontAndBack
    {
        type            empty;
    }
}


// ************************************************************************* //
