/*--------------------------------*- C++ -*----------------------------------*\
  =========                 |
  \\      /  F ield         | OpenFOAM: The Open Source CFD Toolbox
   \\    /   O peration     | Website:  https://openfoam.org
    \\  /    A nd           | Version:  7
     \\/     M anipulation  |
\*---------------------------------------------------------------------------*/
FoamFile
{
    version     2.0;
    format      ascii;
    class       volScalarField;
    location    "37";
    object      rhog;
}
// * * * * * * * * * * * * * * * * * * * * * * * * * * * * * * * * * * * * * //

dimensions      [1 -3 0 0 0 0 0];

internalField   nonuniform List<scalar> 
900
(
1.65862
1.65518
1.64812
1.6371
1.62156
1.60071
1.5735
1.53853
1.494
1.43762
1.36653
1.2772
1.16542
1.02635
0.854812
0.646452
0.403615
0.160682
0.0176412
6.35353e-06
0.0699993
0.0696344
0.06889
0.0677368
0.0661309
0.0640131
0.0613106
0.0579392
0.0538094
0.0488383
0.0429718
0.03622
0.0287148
0.0207878
0.0130575
0.00646254
0.00205803
0.000259961
3.44443e-06
7.35233e-11
0.00613159
0.0060797
0.00597439
0.00581265
0.0055902
0.00530191
0.00494243
0.00450738
0.00399522
0.00341003
0.00276534
0.00208872
0.00142538
0.00083726
0.000390437
0.000125374
2.12621e-05
1.12729e-06
6.33742e-09
4.80881e-13
0.000582823
0.000575579
0.000560974
0.0005388
0.000508819
0.000470856
0.000424956
0.000371592
0.00031194
0.000248185
0.000183755
0.000123296
7.20807e-05
3.45782e-05
1.23887e-05
2.84758e-06
3.26614e-07
1.23134e-08
7.915e-11
4.46568e-14
5.48435e-05
5.39323e-05
5.21089e-05
4.93757e-05
4.57486e-05
4.12713e-05
3.60352e-05
3.02025e-05
2.4027e-05
1.7863e-05
1.21464e-05
7.32822e-06
3.75674e-06
1.53691e-06
4.57677e-07
8.66152e-08
8.54405e-09
3.33682e-10
3.76208e-12
1.23395e-14
5.17726e-06
5.07024e-06
4.85768e-06
4.54314e-06
4.13344e-06
3.64023e-06
3.08187e-06
2.48489e-06
1.88422e-06
1.32106e-06
8.36983e-07
4.64499e-07
2.16391e-07
7.98288e-08
2.15376e-08
3.81979e-09
3.8862e-10
1.94625e-11
4.33183e-13
5.68686e-15
5.04262e-07
4.91995e-07
4.67804e-07
4.32435e-07
3.87155e-07
3.33888e-07
2.75329e-07
2.14952e-07
1.56819e-07
1.05092e-07
6.32536e-08
3.32027e-08
1.46283e-08
5.14861e-09
1.36016e-09
2.50183e-10
2.95222e-11
2.09105e-12
9.03899e-14
3.44759e-15
5.21999e-08
5.07721e-08
4.79738e-08
4.39256e-08
3.88201e-08
3.29309e-08
2.66135e-08
2.02898e-08
1.44081e-08
9.37634e-09
5.47776e-09
2.79952e-09
1.21221e-09
4.27871e-10
1.17735e-10
2.40892e-11
3.51876e-12
3.62772e-13
2.85282e-14
2.45715e-15
5.90736e-09
5.73261e-09
5.39188e-09
4.90313e-09
4.29405e-09
3.60216e-09
2.87363e-09
2.15993e-09
1.51183e-09
9.71193e-10
5.62496e-10
2.87523e-10
1.26512e-10
4.65984e-11
1.39579e-11
3.31476e-12
6.16514e-13
9.17371e-14
1.21293e-14
1.93919e-15
7.49508e-10
7.26339e-10
6.81332e-10
6.17171e-10
5.37887e-10
4.48767e-10
3.5606e-10
2.66427e-10
1.86092e-10
1.19842e-10
7.01322e-11
3.66816e-11
1.68394e-11
6.6609e-12
2.23348e-12
6.28876e-13
1.49615e-13
3.12869e-14
6.4237e-15
1.63684e-15
1.08883e-10
1.05473e-10
9.88643e-11
8.94777e-11
7.79353e-11
6.50337e-11
5.16906e-11
3.88546e-11
2.73848e-11
1.79178e-11
1.0762e-11
5.8627e-12
2.86171e-12
1.23826e-12
4.7175e-13
1.58484e-13
4.7781e-14
1.35598e-14
4.00636e-15
1.44647e-15
1.84066e-11
1.78388e-11
1.67396e-11
1.51805e-11
1.32663e-11
1.1129e-11
8.91842e-12
6.78729e-12
4.87209e-12
3.27364e-12
2.04224e-12
1.17333e-12
6.16393e-13
2.9468e-13
1.28213e-13
5.12144e-14
1.92319e-14
7.12384e-15
2.82219e-15
1.31998e-15
3.6609e-12
3.5526e-12
3.34287e-12
3.0452e-12
2.67916e-12
2.2693e-12
1.8433e-12
1.42926e-12
1.05244e-12
7.31926e-13
4.78143e-13
2.91997e-13
1.66155e-13
8.80703e-14
4.36913e-14
2.0551e-14
9.40131e-15
4.363e-15
2.17572e-15
1.23255e-15
8.61839e-13
8.38003e-13
7.91779e-13
7.26012e-13
6.44822e-13
5.53366e-13
4.57467e-13
3.63078e-13
2.75645e-13
1.9945e-13
1.3711e-13
8.93525e-14
5.51852e-14
3.23918e-14
1.8207e-14
9.9429e-15
5.40038e-15
3.01376e-15
1.79277e-15
1.17033e-15
2.40562e-13
2.34496e-13
2.22708e-13
2.05874e-13
1.84971e-13
1.61229e-13
1.36045e-13
1.10868e-13
8.70554e-14
6.5729e-14
4.7653e-14
3.31683e-14
2.22038e-14
1.43625e-14
9.05477e-15
5.64007e-15
3.53695e-15
2.28376e-15
1.5514e-15
1.12507e-15
7.94784e-14
7.76987e-14
7.42307e-14
6.92548e-14
6.30331e-14
5.58971e-14
4.82277e-14
4.04266e-14
3.28818e-14
2.59302e-14
1.98247e-14
1.47121e-14
1.0629e-14
7.51566e-15
5.24367e-15
3.65038e-15
2.5701e-15
1.8562e-15
1.39188e-15
1.09159e-15
3.0949e-14
3.03507e-14
2.91815e-14
2.74952e-14
2.53706e-14
2.29083e-14
2.02251e-14
1.7447e-14
1.46993e-14
1.20961e-14
9.73045e-15
7.6662e-15
5.93498e-15
4.5373e-15
3.44839e-15
2.62678e-15
2.02348e-15
1.5898e-15
1.28254e-15
1.06651e-15
1.41106e-14
1.38823e-14
1.34349e-14
1.27862e-14
1.19626e-14
1.09979e-14
9.9324e-15
8.80996e-15
7.67578e-15
6.57282e-15
5.53849e-15
4.60181e-15
3.78151e-15
3.08565e-15
2.51254e-15
2.05295e-15
1.69275e-15
1.41565e-15
1.20547e-15
1.04754e-15
7.45954e-15
7.36186e-15
7.1698e-15
6.88992e-15
6.53191e-15
6.10842e-15
5.63458e-15
5.12736e-15
4.60467e-15
4.08422e-15
3.58235e-15
3.11285e-15
2.68609e-15
2.30858e-15
1.98296e-15
1.70845e-15
1.48166e-15
1.29746e-15
1.14994e-15
1.03309e-15
4.50921e-15
4.46292e-15
4.37163e-15
4.23797e-15
4.06584e-15
3.86035e-15
3.62773e-15
3.37513e-15
3.11026e-15
2.84103e-15
2.57507e-15
2.31928e-15
2.07939e-15
1.85968e-15
1.66286e-15
1.49008e-15
1.34117e-15
1.21488e-15
1.10927e-15
1.02202e-15
3.06078e-15
3.0368e-15
2.9894e-15
2.91971e-15
2.8294e-15
2.72073e-15
2.59646e-15
2.45982e-15
2.31438e-15
2.16393e-15
2.01226e-15
1.86299e-15
1.71934e-15
1.58399e-15
1.45898e-15
1.34562e-15
1.24456e-15
1.15586e-15
1.07909e-15
1.01351e-15
2.28532e-15
2.27193e-15
2.2454e-15
2.20624e-15
2.15524e-15
2.09344e-15
2.02216e-15
1.94296e-15
1.85759e-15
1.76799e-15
1.67614e-15
1.58402e-15
1.4935e-15
1.40624e-15
1.32364e-15
1.24679e-15
1.17641e-15
1.11293e-15
1.05648e-15
1.00695e-15
1.83895e-15
1.83098e-15
1.81516e-15
1.79175e-15
1.76112e-15
1.7238e-15
1.68044e-15
1.63185e-15
1.57894e-15
1.52273e-15
1.46434e-15
1.40487e-15
1.34546e-15
1.28713e-15
1.23084e-15
1.17738e-15
1.12738e-15
1.0813e-15
1.03942e-15
1.00189e-15
1.56622e-15
1.56123e-15
1.5513e-15
1.53657e-15
1.51723e-15
1.49356e-15
1.4659e-15
1.43468e-15
1.4004e-15
1.36365e-15
1.32505e-15
1.28527e-15
1.24499e-15
1.20488e-15
1.16557e-15
1.12764e-15
1.09156e-15
1.05774e-15
1.02648e-15
9.97977e-16
1.39136e-15
1.3881e-15
1.3816e-15
1.37194e-15
1.35923e-15
1.3436e-15
1.32527e-15
1.30446e-15
1.28146e-15
1.25662e-15
1.23031e-15
1.20294e-15
1.17494e-15
1.14674e-15
1.11877e-15
1.09143e-15
1.06509e-15
1.04007e-15
1.01662e-15
9.94955e-16
1.27484e-15
1.27264e-15
1.26824e-15
1.2617e-15
1.25306e-15
1.24243e-15
1.2299e-15
1.21562e-15
1.19976e-15
1.18253e-15
1.16416e-15
1.1449e-15
1.12505e-15
1.10488e-15
1.08469e-15
1.06476e-15
1.04536e-15
1.02673e-15
1.00909e-15
9.92621e-16
1.19481e-15
1.19328e-15
1.19022e-15
1.18567e-15
1.17966e-15
1.17224e-15
1.16347e-15
1.15344e-15
1.14227e-15
1.13007e-15
1.117e-15
1.10323e-15
1.08894e-15
1.07433e-15
1.05959e-15
1.04493e-15
1.03055e-15
1.01663e-15
1.00334e-15
9.90821e-16
1.13851e-15
1.13742e-15
1.13526e-15
1.13203e-15
1.12776e-15
1.12248e-15
1.11623e-15
1.10907e-15
1.10106e-15
1.0923e-15
1.08287e-15
1.07289e-15
1.06249e-15
1.05179e-15
1.04095e-15
1.03011e-15
1.0194e-15
1.00897e-15
9.9894e-16
9.89433e-16
1.09817e-15
1.09739e-15
1.09583e-15
1.09351e-15
1.09043e-15
1.08662e-15
1.0821e-15
1.07692e-15
1.07111e-15
1.06474e-15
1.05786e-15
1.05056e-15
1.04293e-15
1.03505e-15
1.02702e-15
1.01896e-15
1.01097e-15
1.00314e-15
9.95575e-16
9.88366e-16
1.06887e-15
1.0683e-15
1.06717e-15
1.06547e-15
1.06323e-15
1.06045e-15
1.05715e-15
1.05336e-15
1.04911e-15
1.04443e-15
1.03938e-15
1.034e-15
1.02837e-15
1.02253e-15
1.01657e-15
1.01056e-15
1.00458e-15
9.98706e-16
9.93004e-16
9.87547e-16
1.04736e-15
1.04694e-15
1.04611e-15
1.04486e-15
1.04322e-15
1.04117e-15
1.03875e-15
1.03595e-15
1.03282e-15
1.02937e-15
1.02564e-15
1.02166e-15
1.01748e-15
1.01315e-15
1.00871e-15
1.00422e-15
9.99748e-16
9.95335e-16
9.91042e-16
9.8692e-16
1.03145e-15
1.03114e-15
1.03053e-15
1.02961e-15
1.02839e-15
1.02688e-15
1.02508e-15
1.02302e-15
1.0207e-15
1.01814e-15
1.01538e-15
1.01242e-15
1.00932e-15
1.00609e-15
1.00278e-15
9.99434e-16
9.96084e-16
9.92774e-16
9.89547e-16
9.8644e-16
1.01962e-15
1.01939e-15
1.01894e-15
1.01826e-15
1.01735e-15
1.01623e-15
1.0149e-15
1.01337e-15
1.01165e-15
1.00975e-15
1.00769e-15
1.0055e-15
1.00319e-15
1.00078e-15
9.98317e-16
9.95816e-16
9.93311e-16
9.90832e-16
9.8841e-16
9.86075e-16
1.0108e-15
1.01063e-15
1.01029e-15
1.00979e-15
1.00911e-15
1.00828e-15
1.00729e-15
1.00615e-15
1.00487e-15
1.00346e-15
1.00193e-15
1.0003e-15
9.9858e-16
9.9679e-16
9.94952e-16
9.93086e-16
9.91215e-16
9.89362e-16
9.87549e-16
9.85798e-16
1.00421e-15
1.00408e-15
1.00383e-15
1.00345e-15
1.00295e-15
1.00233e-15
1.0016e-15
1.00075e-15
9.998e-16
9.98751e-16
9.97614e-16
9.96399e-16
9.95119e-16
9.93788e-16
9.92419e-16
9.91029e-16
9.89634e-16
9.88251e-16
9.86897e-16
9.85588e-16
9.99284e-16
9.9919e-16
9.99002e-16
9.98721e-16
9.98349e-16
9.97888e-16
9.97341e-16
9.96711e-16
9.96004e-16
9.95224e-16
9.94379e-16
9.93476e-16
9.92524e-16
9.91534e-16
9.90516e-16
9.89482e-16
9.88444e-16
9.87414e-16
9.86405e-16
9.85429e-16
9.95606e-16
9.95536e-16
9.95396e-16
9.95187e-16
9.9491e-16
9.94567e-16
9.94161e-16
9.93692e-16
9.93167e-16
9.92587e-16
9.91959e-16
9.91289e-16
9.90582e-16
9.89847e-16
9.89091e-16
9.88323e-16
9.87552e-16
9.86787e-16
9.86036e-16
9.8531e-16
9.92866e-16
9.92814e-16
9.9271e-16
9.92555e-16
9.92349e-16
9.92094e-16
9.91791e-16
9.91443e-16
9.91053e-16
9.90622e-16
9.90156e-16
9.89658e-16
9.89134e-16
9.88589e-16
9.88028e-16
9.87458e-16
9.86885e-16
9.86317e-16
9.8576e-16
9.85221e-16
9.90835e-16
9.90796e-16
9.90718e-16
9.90603e-16
9.90449e-16
9.90259e-16
9.90034e-16
9.89775e-16
9.89485e-16
9.89165e-16
9.88819e-16
9.88449e-16
9.8806e-16
9.87654e-16
9.87238e-16
9.86815e-16
9.8639e-16
9.85969e-16
9.85555e-16
9.85154e-16
9.89339e-16
9.8931e-16
9.89252e-16
9.89165e-16
9.89051e-16
9.88909e-16
9.88741e-16
9.88548e-16
9.88331e-16
9.88092e-16
9.87834e-16
9.87558e-16
9.87268e-16
9.86967e-16
9.86657e-16
9.86342e-16
9.86026e-16
9.85712e-16
9.85404e-16
9.85105e-16
9.88251e-16
9.88229e-16
9.88185e-16
9.8812e-16
9.88034e-16
9.87927e-16
9.878e-16
9.87655e-16
9.87492e-16
9.87312e-16
9.87118e-16
9.86911e-16
9.86693e-16
9.86467e-16
9.86234e-16
9.85997e-16
9.8576e-16
9.85525e-16
9.85294e-16
9.8507e-16
9.87477e-16
9.8746e-16
9.87427e-16
9.87377e-16
9.87311e-16
9.87229e-16
9.87131e-16
9.8702e-16
9.86895e-16
9.86758e-16
9.86609e-16
9.86451e-16
9.86284e-16
9.86111e-16
9.85933e-16
9.85753e-16
9.85571e-16
9.85392e-16
9.85215e-16
9.85044e-16
9.8695e-16
9.86937e-16
9.8691e-16
9.8687e-16
9.86818e-16
9.86753e-16
9.86676e-16
9.86587e-16
9.86489e-16
9.8638e-16
9.86262e-16
9.86137e-16
9.86005e-16
9.85869e-16
9.85728e-16
9.85586e-16
9.85443e-16
9.85301e-16
9.85162e-16
9.85027e-16
9.86623e-16
9.86611e-16
9.86589e-16
9.86556e-16
9.86512e-16
9.86457e-16
9.86393e-16
9.86319e-16
9.86236e-16
9.86145e-16
9.86047e-16
9.85942e-16
9.85833e-16
9.85718e-16
9.85601e-16
9.85482e-16
9.85363e-16
9.85245e-16
9.85129e-16
9.85016e-16
9.86466e-16
9.86456e-16
9.86435e-16
9.86405e-16
9.86365e-16
9.86316e-16
9.86257e-16
9.8619e-16
9.86115e-16
9.86033e-16
9.85944e-16
9.85849e-16
9.8575e-16
9.85646e-16
9.8554e-16
9.85433e-16
9.85325e-16
9.85218e-16
9.85113e-16
9.85011e-16
)
;

boundaryField
{
    topWall
    {
        type            calculated;
        value           uniform 0;
    }
    bottomWall
    {
        type            zeroGradient;
    }
    sideWallL
    {
        type            symmetry;
    }
    sideWallR
    {
        type            calculated;
        value           uniform 0;
    }
    frontAndBack
    {
        type            empty;
    }
}


// ************************************************************************* //
