/*--------------------------------*- C++ -*----------------------------------*\
  =========                 |
  \\      /  F ield         | OpenFOAM: The Open Source CFD Toolbox
   \\    /   O peration     | Website:  https://openfoam.org
    \\  /    A nd           | Version:  7
     \\/     M anipulation  |
\*---------------------------------------------------------------------------*/
FoamFile
{
    version     2.0;
    format      ascii;
    class       volScalarField;
    location    "37";
    object      rhois;
}
// * * * * * * * * * * * * * * * * * * * * * * * * * * * * * * * * * * * * * //

dimensions      [1 -3 0 0 0 0 0];

internalField   nonuniform List<scalar> 
900
(
1.19715
1.19587
1.19323
1.18909
1.18322
1.1753
1.16487
1.15131
1.13378
1.11115
1.08189
1.04389
0.994209
0.928592
0.840628
0.720003
0.550138
0.315199
0.0712606
0.000228445
0.185562
0.184933
0.183647
0.181643
0.178825
0.175063
0.170182
0.163963
0.156133
0.146374
0.13433
0.119645
0.102055
0.0815636
0.0587919
0.0355622
0.0155276
0.00343193
0.000146728
6.20854e-08
0.0333024
0.0331028
0.0326957
0.0320659
0.0311905
0.0300391
0.0285753
0.0267586
0.0245493
0.0219168
0.0188549
0.0154049
0.0116896
0.00795115
0.00456936
0.00199979
0.000549609
6.49298e-05
1.52133e-06
1.7275e-09
0.00592758
0.00587464
0.00576729
0.00560271
0.00537694
0.00508539
0.00472353
0.00428825
0.00377979
0.00320452
0.00257861
0.00193174
0.00130922
0.000768482
0.000364854
0.0001255
2.60913e-05
2.43212e-06
6.42525e-08
3.27119e-10
0.00104165
0.00102919
0.00100407
0.000965926
0.00091435
0.000849026
0.000769988
0.000677966
0.000574827
0.000464062
0.000351177
0.000243683
0.000150258
7.86765e-05
3.27332e-05
9.81435e-06
1.84084e-06
1.7811e-07
7.22406e-09
1.34635e-10
0.000184056
0.000181316
0.000175825
0.00016757
0.000156565
0.000142893
0.000126757
0.000108552
8.89282e-05
6.88401e-05
4.95261e-05
3.23766e-05
1.86504e-05
9.07753e-06
3.52613e-06
1.01326e-06
1.95783e-07
2.29546e-08
1.5533e-09
7.92319e-11
3.34135e-05
3.28286e-05
3.16626e-05
2.9926e-05
2.7642e-05
2.48545e-05
2.16386e-05
1.81107e-05
1.44354e-05
1.08224e-05
7.50899e-06
4.72071e-06
2.61612e-06
1.23368e-06
4.73636e-07
1.4047e-07
3.04541e-08
4.64327e-09
5.16331e-10
5.63007e-11
6.36907e-06
6.24387e-06
5.99551e-06
5.62868e-06
5.15184e-06
4.57878e-06
3.93026e-06
3.23517e-06
2.53049e-06
1.85894e-06
1.26376e-06
7.80484e-07
4.28035e-07
2.02847e-07
8.05292e-08
2.59419e-08
6.61611e-09
1.3386e-09
2.32132e-10
4.46606e-11
1.30122e-06
1.27361e-06
1.21907e-06
1.13906e-06
1.03605e-06
9.13764e-07
7.77426e-07
6.33819e-07
4.91033e-07
3.57751e-07
2.42035e-07
1.49773e-07
8.33003e-08
4.08443e-08
1.7317e-08
6.25051e-09
1.91398e-09
5.1011e-10
1.29371e-10
3.79578e-11
2.90224e-07
2.83809e-07
2.71173e-07
2.52731e-07
2.29153e-07
2.01409e-07
1.70791e-07
1.38901e-07
1.07556e-07
7.86044e-08
5.36673e-08
3.38378e-08
1.94592e-08
1.00822e-08
4.65992e-09
1.91426e-09
7.05931e-10
2.42435e-10
8.42013e-11
3.37626e-11
7.17668e-08
7.01658e-08
6.70194e-08
6.24423e-08
5.66162e-08
4.97962e-08
4.23118e-08
3.45572e-08
2.69656e-08
1.99644e-08
1.39159e-08
9.05773e-09
5.46181e-09
3.0315e-09
1.54437e-09
7.25315e-10
3.19537e-10
1.37223e-10
6.13454e-11
3.09812e-11
1.99126e-08
1.94776e-08
1.86234e-08
1.73829e-08
1.58069e-08
1.39655e-08
1.19473e-08
9.85614e-09
7.80409e-09
5.90004e-09
4.23591e-09
2.87299e-09
1.83311e-09
1.0981e-09
6.18909e-10
3.312e-10
1.71635e-10
8.90887e-11
4.85213e-11
2.90594e-11
6.25209e-09
6.1221e-09
5.8669e-09
5.49629e-09
5.02533e-09
4.47448e-09
3.86932e-09
3.23953e-09
2.61688e-09
2.03226e-09
1.51214e-09
1.07505e-09
7.29311e-10
4.72661e-10
2.94145e-10
1.77696e-10
1.06133e-10
6.43188e-11
4.07507e-11
2.76907e-11
2.23287e-09
2.18992e-09
2.10557e-09
1.98292e-09
1.82673e-09
1.64344e-09
1.44104e-09
1.22877e-09
1.01656e-09
8.14152e-10
6.30134e-10
4.70922e-10
3.40059e-10
2.37991e-10
1.62444e-10
1.09269e-10
7.35089e-11
5.0354e-11
3.57614e-11
2.66939e-11
9.09118e-10
8.93415e-10
8.62531e-10
8.17528e-10
7.60026e-10
6.92205e-10
6.16776e-10
5.36885e-10
4.55934e-10
3.77332e-10
3.04177e-10
2.38948e-10
1.83253e-10
1.37719e-10
1.02037e-10
7.51738e-11
5.5661e-11
4.1903e-11
3.24137e-11
2.59554e-11
4.21774e-10
4.1543e-10
4.02935e-10
3.84677e-10
3.61247e-10
3.33445e-10
3.02267e-10
2.68877e-10
2.34553e-10
2.00599e-10
1.68246e-10
1.38541e-10
1.12253e-10
8.98166e-11
7.13242e-11
5.65715e-11
4.51407e-11
3.64992e-11
3.00906e-11
2.54012e-11
2.2216e-10
2.19344e-10
2.13787e-10
2.05641e-10
1.95138e-10
1.82594e-10
1.68403e-10
1.53032e-10
1.37001e-10
1.20853e-10
1.05119e-10
9.02751e-11
7.67067e-11
6.46788e-11
5.43244e-11
4.5651e-11
3.85629e-11
3.28928e-11
2.84362e-11
2.49814e-11
1.31868e-10
1.30504e-10
1.27807e-10
1.2384e-10
1.18702e-10
1.12525e-10
1.05477e-10
9.77595e-11
8.95992e-11
8.12399e-11
7.29273e-11
6.48931e-11
5.73382e-11
5.04197e-11
4.42416e-11
3.88534e-11
3.42546e-11
3.04043e-11
2.72342e-11
2.46609e-11
8.71841e-11
8.64694e-11
8.50537e-11
8.29652e-11
8.02474e-11
7.69599e-11
7.3179e-11
6.89967e-11
6.45195e-11
5.98638e-11
5.51505e-11
5.04987e-11
4.60178e-11
4.18007e-11
3.79192e-11
3.44205e-11
3.13278e-11
2.86422e-11
2.63475e-11
2.4415e-11
6.32458e-11
6.28446e-11
6.20485e-11
6.08708e-11
5.93319e-11
5.746e-11
5.52917e-11
5.28719e-11
5.02533e-11
4.74947e-11
4.46591e-11
4.18106e-11
3.90111e-11
3.63166e-11
3.37745e-11
3.14213e-11
2.92818e-11
2.7369e-11
2.56856e-11
2.42256e-11
4.95139e-11
4.92749e-11
4.88e-11
4.80957e-11
4.7172e-11
4.6043e-11
4.47273e-11
4.32478e-11
4.16319e-11
3.99111e-11
3.81196e-11
3.62936e-11
3.44692e-11
3.2681e-11
3.096e-11
2.93326e-11
2.78193e-11
2.64347e-11
2.5187e-11
2.40793e-11
4.11688e-11
4.10191e-11
4.07213e-11
4.02788e-11
3.96966e-11
3.89823e-11
3.81454e-11
3.71984e-11
3.61563e-11
3.50366e-11
3.38587e-11
3.2644e-11
3.14141e-11
3.01909e-11
2.89949e-11
2.78445e-11
2.67556e-11
2.57408e-11
2.4809e-11
2.39661e-11
3.58488e-11
3.57511e-11
3.55566e-11
3.52669e-11
3.48849e-11
3.44146e-11
3.38615e-11
3.32323e-11
3.25357e-11
3.17818e-11
3.09822e-11
3.01498e-11
2.92981e-11
2.84412e-11
2.75927e-11
2.67656e-11
2.59716e-11
2.52207e-11
2.4521e-11
2.38785e-11
3.23224e-11
3.22564e-11
3.21249e-11
3.19289e-11
3.167e-11
3.13503e-11
3.09731e-11
3.05423e-11
3.00631e-11
2.95416e-11
2.89848e-11
2.84008e-11
2.77984e-11
2.71868e-11
2.65752e-11
2.59727e-11
2.53878e-11
2.48283e-11
2.43008e-11
2.38106e-11
2.99101e-11
2.98643e-11
2.97731e-11
2.96369e-11
2.94567e-11
2.92338e-11
2.89701e-11
2.86681e-11
2.83308e-11
2.79622e-11
2.75666e-11
2.71494e-11
2.67163e-11
2.62734e-11
2.58271e-11
2.53838e-11
2.49498e-11
2.45308e-11
2.41321e-11
2.37581e-11
2.82182e-11
2.81858e-11
2.81211e-11
2.80245e-11
2.78965e-11
2.77379e-11
2.755e-11
2.73342e-11
2.70926e-11
2.68276e-11
2.65423e-11
2.624e-11
2.59246e-11
2.56003e-11
2.52717e-11
2.49432e-11
2.46193e-11
2.43045e-11
2.40027e-11
2.37174e-11
2.70082e-11
2.69848e-11
2.69381e-11
2.68684e-11
2.6776e-11
2.66615e-11
2.65255e-11
2.63691e-11
2.61937e-11
2.60008e-11
2.57925e-11
2.55711e-11
2.53393e-11
2.51e-11
2.48563e-11
2.46116e-11
2.43691e-11
2.4132e-11
2.39034e-11
2.3686e-11
2.61294e-11
2.61123e-11
2.60783e-11
2.60274e-11
2.59599e-11
2.58761e-11
2.57766e-11
2.56621e-11
2.55334e-11
2.53916e-11
2.52382e-11
2.50748e-11
2.49032e-11
2.47256e-11
2.45441e-11
2.43611e-11
2.4179e-11
2.40003e-11
2.38272e-11
2.36618e-11
2.54838e-11
2.54713e-11
2.54462e-11
2.54087e-11
2.53589e-11
2.52971e-11
2.52237e-11
2.51391e-11
2.5044e-11
2.49391e-11
2.48254e-11
2.47041e-11
2.45765e-11
2.44441e-11
2.43085e-11
2.41714e-11
2.40345e-11
2.38998e-11
2.37688e-11
2.36432e-11
2.50055e-11
2.49962e-11
2.49776e-11
2.49497e-11
2.49128e-11
2.4867e-11
2.48125e-11
2.47497e-11
2.4679e-11
2.4601e-11
2.45164e-11
2.4426e-11
2.43308e-11
2.42319e-11
2.41303e-11
2.40275e-11
2.39246e-11
2.3823e-11
2.3724e-11
2.36289e-11
2.46489e-11
2.46419e-11
2.46281e-11
2.46073e-11
2.45798e-11
2.45457e-11
2.45051e-11
2.44582e-11
2.44055e-11
2.43474e-11
2.42843e-11
2.42168e-11
2.41456e-11
2.40716e-11
2.39955e-11
2.39183e-11
2.3841e-11
2.37645e-11
2.36899e-11
2.36179e-11
2.43819e-11
2.43767e-11
2.43663e-11
2.43508e-11
2.43303e-11
2.43048e-11
2.42744e-11
2.42395e-11
2.42001e-11
2.41567e-11
2.41095e-11
2.4059e-11
2.40058e-11
2.39504e-11
2.38934e-11
2.38356e-11
2.37775e-11
2.372e-11
2.36638e-11
2.36095e-11
2.41815e-11
2.41776e-11
2.41699e-11
2.41583e-11
2.41429e-11
2.41238e-11
2.41011e-11
2.4075e-11
2.40456e-11
2.40131e-11
2.39778e-11
2.39401e-11
2.39003e-11
2.38588e-11
2.38162e-11
2.37728e-11
2.37293e-11
2.36862e-11
2.3644e-11
2.36031e-11
2.40309e-11
2.4028e-11
2.40222e-11
2.40135e-11
2.4002e-11
2.39877e-11
2.39708e-11
2.39512e-11
2.39292e-11
2.3905e-11
2.38786e-11
2.38504e-11
2.38207e-11
2.37897e-11
2.37578e-11
2.37254e-11
2.36929e-11
2.36606e-11
2.36289e-11
2.35983e-11
2.39177e-11
2.39155e-11
2.39112e-11
2.39047e-11
2.38961e-11
2.38854e-11
2.38728e-11
2.38582e-11
2.38417e-11
2.38236e-11
2.38039e-11
2.37829e-11
2.37607e-11
2.37376e-11
2.37138e-11
2.36896e-11
2.36653e-11
2.36412e-11
2.36175e-11
2.35946e-11
2.38327e-11
2.38311e-11
2.38279e-11
2.3823e-11
2.38166e-11
2.38086e-11
2.37992e-11
2.37883e-11
2.3776e-11
2.37625e-11
2.37478e-11
2.37322e-11
2.37156e-11
2.36984e-11
2.36807e-11
2.36626e-11
2.36445e-11
2.36266e-11
2.36089e-11
2.35918e-11
2.37691e-11
2.37679e-11
2.37654e-11
2.37618e-11
2.3757e-11
2.37511e-11
2.3744e-11
2.37359e-11
2.37268e-11
2.37167e-11
2.37058e-11
2.36941e-11
2.36818e-11
2.3669e-11
2.36558e-11
2.36424e-11
2.3629e-11
2.36156e-11
2.36025e-11
2.35897e-11
2.37215e-11
2.37206e-11
2.37188e-11
2.37161e-11
2.37125e-11
2.37081e-11
2.37028e-11
2.36968e-11
2.369e-11
2.36825e-11
2.36744e-11
2.36657e-11
2.36566e-11
2.36471e-11
2.36373e-11
2.36273e-11
2.36173e-11
2.36074e-11
2.35976e-11
2.35882e-11
2.36862e-11
2.36855e-11
2.36842e-11
2.36821e-11
2.36795e-11
2.36762e-11
2.36723e-11
2.36677e-11
2.36627e-11
2.36571e-11
2.36511e-11
2.36446e-11
2.36378e-11
2.36307e-11
2.36235e-11
2.36161e-11
2.36086e-11
2.36013e-11
2.3594e-11
2.3587e-11
2.36601e-11
2.36596e-11
2.36586e-11
2.36571e-11
2.36551e-11
2.36526e-11
2.36497e-11
2.36463e-11
2.36425e-11
2.36384e-11
2.36339e-11
2.36291e-11
2.3624e-11
2.36187e-11
2.36133e-11
2.36078e-11
2.36023e-11
2.35968e-11
2.35914e-11
2.35862e-11
2.36412e-11
2.36408e-11
2.364e-11
2.36389e-11
2.36374e-11
2.36355e-11
2.36333e-11
2.36307e-11
2.36279e-11
2.36248e-11
2.36214e-11
2.36177e-11
2.36139e-11
2.361e-11
2.36059e-11
2.36018e-11
2.35976e-11
2.35935e-11
2.35895e-11
2.35855e-11
2.36276e-11
2.36273e-11
2.36268e-11
2.36259e-11
2.36247e-11
2.36233e-11
2.36216e-11
2.36197e-11
2.36175e-11
2.36151e-11
2.36125e-11
2.36097e-11
2.36068e-11
2.36038e-11
2.36006e-11
2.35975e-11
2.35943e-11
2.35912e-11
2.35881e-11
2.35851e-11
2.36184e-11
2.36182e-11
2.36177e-11
2.3617e-11
2.36161e-11
2.3615e-11
2.36136e-11
2.36121e-11
2.36104e-11
2.36085e-11
2.36064e-11
2.36042e-11
2.36019e-11
2.35995e-11
2.35971e-11
2.35946e-11
2.35921e-11
2.35896e-11
2.35872e-11
2.35848e-11
2.36127e-11
2.36125e-11
2.36121e-11
2.36115e-11
2.36108e-11
2.36098e-11
2.36087e-11
2.36074e-11
2.36059e-11
2.36044e-11
2.36026e-11
2.36008e-11
2.35989e-11
2.35969e-11
2.35948e-11
2.35928e-11
2.35907e-11
2.35886e-11
2.35866e-11
2.35846e-11
2.361e-11
2.36098e-11
2.36094e-11
2.36089e-11
2.36082e-11
2.36073e-11
2.36063e-11
2.36052e-11
2.36038e-11
2.36024e-11
2.36008e-11
2.35992e-11
2.35974e-11
2.35956e-11
2.35938e-11
2.35919e-11
2.359e-11
2.35881e-11
2.35863e-11
2.35845e-11
)
;

boundaryField
{
    topWall
    {
        type            zeroGradient;
    }
    bottomWall
    {
        type            zeroGradient;
    }
    sideWallL
    {
        type            symmetry;
    }
    sideWallR
    {
        type            zeroGradient;
    }
    frontAndBack
    {
        type            empty;
    }
}


// ************************************************************************* //
