/*--------------------------------*- C++ -*----------------------------------*\
  =========                 |
  \\      /  F ield         | OpenFOAM: The Open Source CFD Toolbox
   \\    /   O peration     | Website:  https://openfoam.org
    \\  /    A nd           | Version:  7
     \\/     M anipulation  |
\*---------------------------------------------------------------------------*/
FoamFile
{
    version     2.0;
    format      ascii;
    class       volScalarField;
    location    "37";
    object      rhot1;
}
// * * * * * * * * * * * * * * * * * * * * * * * * * * * * * * * * * * * * * //

dimensions      [1 -3 0 0 0 0 0];

internalField   nonuniform List<scalar> 
900
(
3.75892
3.75493
3.74673
3.73387
3.71564
3.69097
3.65843
3.61599
3.56094
3.48954
3.39661
3.27494
3.11421
2.89923
2.6066
2.1984
1.6156
0.823056
0.121249
5.87239e-05
0.416925
0.415071
0.411281
0.405392
0.397152
0.386215
0.372139
0.354386
0.332335
0.305326
0.272752
0.234243
0.190014
0.141431
0.0918312
0.0472745
0.0158031
0.00214081
3.24696e-05
9.75916e-10
0.0448268
0.0444662
0.0437336
0.0426068
0.0410538
0.0390352
0.0365084
0.0334356
0.0297958
0.0256051
0.0209443
0.0159949
0.0110715
0.00662625
0.00316979
0.00105568
0.000189296
1.10017e-05
7.28352e-08
7.53599e-12
0.0046522
0.00459635
0.00448368
0.00431242
0.00408042
0.00378594
0.00342873
0.00301167
0.00254295
0.0020385
0.00152415
0.00103593
0.0006161
0.000302519
0.000111952
2.69504e-05
3.3092e-06
1.3839e-07
1.04591e-09
7.59641e-13
0.000471127
0.000463552
0.000448381
0.000425607
0.000395319
0.00035782
0.000313794
0.000264502
0.000211968
0.00015909
0.000109515
6.71434e-05
3.51575e-05
1.4796e-05
4.57828e-06
9.13353e-07
9.69807e-08
4.20238e-09
5.48637e-11
2.19851e-13
4.77937e-05
4.68374e-05
4.49361e-05
4.21175e-05
3.84364e-05
3.39891e-05
2.89303e-05
2.34881e-05
1.7969e-05
1.27423e-05
8.19168e-06
4.6323e-06
2.21116e-06
8.42048e-07
2.36873e-07
4.43992e-08
4.8616e-09
2.68395e-10
6.78538e-12
1.04275e-13
4.9991e-06
4.88139e-06
4.64897e-06
4.30844e-06
3.87114e-06
3.35454e-06
2.78348e-06
2.1905e-06
1.61438e-06
1.09588e-06
6.70438e-07
3.59275e-07
1.62505e-07
5.9146e-08
1.63091e-08
3.16863e-09
4.00891e-10
3.10011e-11
1.49346e-12
6.44167e-14
5.54959e-07
5.40267e-07
5.11435e-07
4.69623e-07
4.16709e-07
3.55387e-07
2.89202e-07
2.22431e-07
1.59712e-07
1.05389e-07
6.26489e-08
3.27204e-08
1.45571e-08
5.31462e-09
1.52513e-09
3.28704e-10
5.11789e-11
5.69987e-12
4.90941e-13
4.65001e-14
6.71982e-08
6.52746e-08
6.15183e-08
5.61162e-08
4.9359e-08
4.16444e-08
3.3468e-08
2.53914e-08
1.79806e-08
1.17185e-08
6.90906e-09
3.60982e-09
1.63157e-09
6.2098e-10
1.93557e-10
4.82235e-11
9.49585e-12
1.5106e-12
2.15397e-13
3.70241e-14
9.09472e-09
8.82273e-09
8.29354e-09
7.5371e-09
6.59872e-09
5.53837e-09
4.42788e-09
3.34501e-09
2.36417e-09
1.54474e-09
9.201e-10
4.91658e-10
2.31605e-10
9.44881e-11
3.28683e-11
9.66339e-12
2.4173e-12
5.35196e-13
1.16871e-13
3.14473e-14
1.40416e-09
1.36162e-09
1.27906e-09
1.16148e-09
1.01632e-09
8.53202e-10
6.83355e-10
5.1857e-10
3.69775e-10
2.45391e-10
1.49924e-10
8.33536e-11
4.16827e-11
1.85572e-11
7.30875e-12
2.5513e-12
8.0342e-13
2.39236e-13
7.42491e-14
2.79147e-14
2.51214e-10
2.43723e-10
2.29196e-10
2.08537e-10
1.83072e-10
1.54491e-10
1.24735e-10
9.58088e-11
6.95503e-11
4.73669e-11
3.00283e-11
1.75827e-11
9.44431e-12
4.63298e-12
2.07633e-12
8.57685e-13
3.34303e-13
1.28845e-13
5.30346e-14
2.55566e-14
5.26396e-11
5.11352e-11
4.8217e-11
4.40644e-11
3.89387e-11
3.31708e-11
2.71374e-11
2.12272e-11
1.5797e-11
1.11256e-11
7.37682e-12
4.58385e-12
2.66127e-12
1.44343e-12
7.3496e-13
3.55852e-13
1.67957e-13
8.04695e-14
4.13103e-14
2.39211e-14
1.29954e-11
1.26484e-11
1.19746e-11
1.10135e-11
9.82278e-12
8.47518e-12
7.05369e-12
5.64435e-12
4.32735e-12
3.16768e-12
2.20728e-12
1.46116e-12
9.18741e-13
5.50297e-13
3.16355e-13
1.77036e-13
9.86369e-14
5.64276e-14
3.42991e-14
2.27541e-14
3.78649e-12
3.69444e-12
3.5153e-12
3.25887e-12
2.93942e-12
2.575e-12
2.18634e-12
1.7952e-12
1.4223e-12
1.08521e-12
7.96401e-13
5.62095e-13
3.82245e-13
2.51612e-13
1.61671e-13
1.02738e-13
6.57352e-14
4.32472e-14
2.98474e-14
2.19033e-14
1.30018e-12
1.27216e-12
1.21748e-12
1.13887e-12
1.04027e-12
9.26747e-13
8.04135e-13
6.78675e-13
5.5648e-13
4.42964e-13
3.42318e-13
2.57136e-13
1.88291e-13
1.35104e-13
9.57354e-14
6.77082e-14
4.84059e-14
3.54472e-14
2.68885e-14
2.1273e-14
5.24015e-13
5.14287e-13
4.95252e-13
4.67748e-13
4.33004e-13
3.92596e-13
3.48373e-13
3.02346e-13
2.56542e-13
2.12838e-13
1.72797e-13
1.3754e-13
1.07673e-13
8.32961e-14
6.40812e-14
4.94045e-14
3.84917e-14
3.05481e-14
2.48513e-14
2.08001e-14
2.46277e-13
2.42462e-13
2.34974e-13
2.24101e-13
2.10263e-13
1.94007e-13
1.75983e-13
1.56911e-13
1.37538e-13
1.18583e-13
1.00686e-13
8.43553e-14
6.99341e-14
5.75905e-14
4.73277e-14
3.90163e-14
3.24368e-14
2.7325e-14
2.34101e-14
2.04421e-14
1.33649e-13
1.31977e-13
1.28687e-13
1.23886e-13
1.17732e-13
1.10433e-13
1.02241e-13
9.3438e-14
8.43262e-14
7.52075e-14
6.63641e-14
5.8039e-14
5.04203e-14
4.36318e-14
3.77317e-14
3.27185e-14
2.85438e-14
2.51266e-14
2.23691e-14
2.01692e-14
8.25707e-14
8.17625e-14
8.01678e-14
7.783e-14
7.4814e-14
7.12059e-14
6.71105e-14
6.26491e-14
5.79536e-14
5.31608e-14
4.84043e-14
4.38062e-14
3.94702e-14
3.54758e-14
3.18758e-14
2.86959e-14
2.59379e-14
2.35845e-14
2.16048e-14
1.996e-14
5.70309e-14
5.66054e-14
5.57638e-14
5.45251e-14
5.29178e-14
5.09801e-14
4.87594e-14
4.63111e-14
4.36974e-14
4.09844e-14
3.82391e-14
3.55261e-14
3.29037e-14
3.04216e-14
2.81178e-14
2.60185e-14
2.41378e-14
2.2479e-14
2.10368e-14
1.97991e-14
4.31516e-14
4.29107e-14
4.24333e-14
4.17282e-14
4.08087e-14
3.96929e-14
3.84036e-14
3.69679e-14
3.54168e-14
3.37842e-14
3.21055e-14
3.04164e-14
2.87508e-14
2.71394e-14
2.56083e-14
2.41781e-14
2.28634e-14
2.16731e-14
2.06106e-14
1.9675e-14
3.50653e-14
3.49204e-14
3.46328e-14
3.42067e-14
3.36488e-14
3.29681e-14
3.21762e-14
3.12871e-14
3.03171e-14
2.92845e-14
2.8209e-14
2.71111e-14
2.60109e-14
2.49279e-14
2.38795e-14
2.28808e-14
2.19439e-14
2.10779e-14
2.02886e-14
1.95792e-14
3.0077e-14
2.99854e-14
2.98033e-14
2.95329e-14
2.91777e-14
2.87424e-14
2.82333e-14
2.76578e-14
2.7025e-14
2.63453e-14
2.56301e-14
2.48915e-14
2.41421e-14
2.3394e-14
2.26592e-14
2.19484e-14
2.12708e-14
2.0634e-14
2.00441e-14
1.95051e-14
2.68543e-14
2.6794e-14
2.6674e-14
2.64955e-14
2.62604e-14
2.59713e-14
2.56316e-14
2.52458e-14
2.48189e-14
2.43571e-14
2.38672e-14
2.33568e-14
2.28336e-14
2.23059e-14
2.17815e-14
2.1268e-14
2.07724e-14
2.03006e-14
1.98578e-14
1.94479e-14
2.46938e-14
2.46528e-14
2.45712e-14
2.44496e-14
2.42891e-14
2.40913e-14
2.3858e-14
2.3592e-14
2.32963e-14
2.29746e-14
2.26313e-14
2.2271e-14
2.18989e-14
2.15205e-14
2.1141e-14
2.0766e-14
2.04004e-14
2.00488e-14
1.97155e-14
1.94037e-14
2.32027e-14
2.31742e-14
2.31172e-14
2.30323e-14
2.29201e-14
2.27814e-14
2.26176e-14
2.24301e-14
2.2221e-14
2.19926e-14
2.17476e-14
2.14892e-14
2.12208e-14
2.0946e-14
2.06685e-14
2.03923e-14
2.0121e-14
1.9858e-14
1.96066e-14
1.93696e-14
2.215e-14
2.21296e-14
2.20892e-14
2.20287e-14
2.19488e-14
2.18498e-14
2.17327e-14
2.15984e-14
2.14481e-14
2.12835e-14
2.11063e-14
2.09187e-14
2.07229e-14
2.05215e-14
2.03171e-14
2.01125e-14
1.99102e-14
1.97131e-14
1.95234e-14
1.93433e-14
2.13935e-14
2.13788e-14
2.13496e-14
2.1306e-14
2.12482e-14
2.11766e-14
2.10917e-14
2.09943e-14
2.0885e-14
2.07651e-14
2.06357e-14
2.04982e-14
2.03543e-14
2.02056e-14
2.00542e-14
1.9902e-14
1.97509e-14
1.96028e-14
1.94597e-14
1.93231e-14
2.08427e-14
2.0832e-14
2.08106e-14
2.07788e-14
2.07366e-14
2.06842e-14
2.06222e-14
2.05508e-14
2.04707e-14
2.03826e-14
2.02873e-14
2.01859e-14
2.00795e-14
1.99694e-14
1.98568e-14
1.97432e-14
1.96301e-14
1.95189e-14
1.9411e-14
1.93076e-14
2.04376e-14
2.04297e-14
2.0414e-14
2.03906e-14
2.03595e-14
2.0321e-14
2.02753e-14
2.02226e-14
2.01635e-14
2.00984e-14
2.0028e-14
1.99529e-14
1.98739e-14
1.9792e-14
1.97081e-14
1.96233e-14
1.95386e-14
1.94551e-14
1.93738e-14
1.92957e-14
2.01376e-14
2.01318e-14
2.01202e-14
2.01028e-14
2.00798e-14
2.00513e-14
2.00175e-14
1.99785e-14
1.99347e-14
1.98864e-14
1.98341e-14
1.97784e-14
1.97196e-14
1.96586e-14
1.95961e-14
1.95327e-14
1.94693e-14
1.94066e-14
1.93455e-14
1.92866e-14
1.99143e-14
1.991e-14
1.99014e-14
1.98885e-14
1.98714e-14
1.98503e-14
1.98251e-14
1.97962e-14
1.97636e-14
1.97278e-14
1.96889e-14
1.96474e-14
1.96037e-14
1.95582e-14
1.95115e-14
1.94642e-14
1.94168e-14
1.93698e-14
1.9324e-14
1.92797e-14
1.97476e-14
1.97444e-14
1.9738e-14
1.97284e-14
1.97157e-14
1.97e-14
1.96813e-14
1.96598e-14
1.96356e-14
1.96089e-14
1.958e-14
1.95491e-14
1.95165e-14
1.94826e-14
1.94478e-14
1.94125e-14
1.93771e-14
1.9342e-14
1.93076e-14
1.92745e-14
1.9623e-14
1.96206e-14
1.96158e-14
1.96087e-14
1.95993e-14
1.95875e-14
1.95736e-14
1.95576e-14
1.95396e-14
1.95197e-14
1.94982e-14
1.94752e-14
1.9451e-14
1.94258e-14
1.93999e-14
1.93736e-14
1.93471e-14
1.93209e-14
1.92953e-14
1.92705e-14
1.95298e-14
1.9528e-14
1.95245e-14
1.95192e-14
1.95121e-14
1.95034e-14
1.94931e-14
1.94811e-14
1.94677e-14
1.9453e-14
1.9437e-14
1.94199e-14
1.94019e-14
1.93831e-14
1.93638e-14
1.93443e-14
1.93246e-14
1.93051e-14
1.9286e-14
1.92675e-14
1.94602e-14
1.94589e-14
1.94562e-14
1.94523e-14
1.9447e-14
1.94406e-14
1.94329e-14
1.9424e-14
1.9414e-14
1.94031e-14
1.93912e-14
1.93785e-14
1.93651e-14
1.93512e-14
1.93369e-14
1.93223e-14
1.93077e-14
1.92932e-14
1.9279e-14
1.92652e-14
1.94083e-14
1.94074e-14
1.94054e-14
1.94024e-14
1.93985e-14
1.93937e-14
1.9388e-14
1.93814e-14
1.9374e-14
1.93659e-14
1.9357e-14
1.93476e-14
1.93377e-14
1.93273e-14
1.93167e-14
1.93059e-14
1.92951e-14
1.92843e-14
1.92737e-14
1.92635e-14
1.93699e-14
1.93691e-14
1.93677e-14
1.93655e-14
1.93626e-14
1.9359e-14
1.93547e-14
1.93498e-14
1.93443e-14
1.93383e-14
1.93317e-14
1.93247e-14
1.93173e-14
1.93096e-14
1.93018e-14
1.92937e-14
1.92857e-14
1.92777e-14
1.92699e-14
1.92623e-14
1.93415e-14
1.9341e-14
1.93399e-14
1.93383e-14
1.93361e-14
1.93334e-14
1.93302e-14
1.93266e-14
1.93224e-14
1.93179e-14
1.9313e-14
1.93078e-14
1.93023e-14
1.92966e-14
1.92907e-14
1.92848e-14
1.92788e-14
1.92728e-14
1.9267e-14
1.92613e-14
1.93209e-14
1.93205e-14
1.93197e-14
1.93185e-14
1.93168e-14
1.93148e-14
1.93124e-14
1.93096e-14
1.93066e-14
1.93032e-14
1.92995e-14
1.92956e-14
1.92914e-14
1.92871e-14
1.92827e-14
1.92782e-14
1.92737e-14
1.92693e-14
1.92649e-14
1.92607e-14
1.93063e-14
1.9306e-14
1.93053e-14
1.93044e-14
1.93031e-14
1.93016e-14
1.92997e-14
1.92976e-14
1.92952e-14
1.92926e-14
1.92898e-14
1.92868e-14
1.92837e-14
1.92804e-14
1.9277e-14
1.92736e-14
1.92702e-14
1.92668e-14
1.92634e-14
1.92602e-14
1.92963e-14
1.9296e-14
1.92955e-14
1.92948e-14
1.92938e-14
1.92926e-14
1.92911e-14
1.92894e-14
1.92875e-14
1.92855e-14
1.92833e-14
1.92809e-14
1.92784e-14
1.92758e-14
1.92731e-14
1.92704e-14
1.92677e-14
1.9265e-14
1.92624e-14
1.92599e-14
1.92901e-14
1.92899e-14
1.92895e-14
1.92888e-14
1.9288e-14
1.9287e-14
1.92857e-14
1.92843e-14
1.92828e-14
1.9281e-14
1.92792e-14
1.92772e-14
1.92751e-14
1.9273e-14
1.92707e-14
1.92685e-14
1.92662e-14
1.9264e-14
1.92618e-14
1.92597e-14
1.92871e-14
1.92869e-14
1.92865e-14
1.9286e-14
1.92852e-14
1.92843e-14
1.92832e-14
1.92819e-14
1.92805e-14
1.92789e-14
1.92772e-14
1.92754e-14
1.92736e-14
1.92716e-14
1.92696e-14
1.92675e-14
1.92655e-14
1.92635e-14
1.92615e-14
1.92596e-14
)
;

boundaryField
{
    topWall
    {
        type            zeroGradient;
    }
    bottomWall
    {
        type            zeroGradient;
    }
    sideWallL
    {
        type            symmetry;
    }
    sideWallR
    {
        type            calculated;
        value           uniform 0;
    }
    frontAndBack
    {
        type            empty;
    }
}


// ************************************************************************* //
