/*--------------------------------*- C++ -*----------------------------------*\
  =========                 |
  \\      /  F ield         | OpenFOAM: The Open Source CFD Toolbox
   \\    /   O peration     | Website:  https://openfoam.org
    \\  /    A nd           | Version:  7
     \\/     M anipulation  |
\*---------------------------------------------------------------------------*/
FoamFile
{
    version     2.0;
    format      ascii;
    class       volScalarField;
    location    "37";
    object      T;
}
// * * * * * * * * * * * * * * * * * * * * * * * * * * * * * * * * * * * * * //

dimensions      [0 0 0 1 0 0 0];

internalField   nonuniform List<scalar> 
900
(
607.407
607.369
607.292
607.17
606.998
606.766
606.461
606.064
605.549
604.883
604.018
602.884
601.384
599.364
596.563
592.458
585.759
572.594
539.541
437.381
558.69
558.599
558.412
558.12
557.706
557.146
556.408
555.445
554.194
552.566
550.435
547.621
543.851
538.706
531.494
520.999
504.876
478.19
430.096
341.485
522.882
522.748
522.473
522.041
521.431
520.606
519.521
518.107
516.274
513.897
510.796
506.72
501.297
493.972
483.885
469.672
449.129
418.771
373.734
310.265
491.428
491.253
490.895
490.336
489.545
488.481
487.084
485.274
482.942
479.939
476.061
471.029
464.448
455.766
444.198
428.645
407.618
379.321
342.23
296.885
463.058
462.851
462.427
461.765
460.832
459.583
457.95
455.849
453.163
449.739
445.373
439.795
432.649
423.464
411.634
396.412
376.961
352.556
323.058
289.768
437.578
437.348
436.877
436.143
435.114
433.74
431.956
429.676
426.787
423.145
418.565
412.81
405.587
396.537
385.24
371.246
354.159
333.799
310.49
285.39
414.857
414.612
414.113
413.338
412.254
410.815
408.958
406.603
403.647
399.963
395.393
389.745
382.795
374.288
363.959
351.568
336.971
320.232
301.764
282.442
394.732
394.482
393.973
393.184
392.085
390.632
388.77
386.428
383.516
379.927
375.534
370.19
363.733
355.994
346.819
336.1
323.825
310.146
295.44
280.338
377.021
376.773
376.268
375.488
374.406
372.984
371.173
368.911
366.127
362.732
358.629
353.71
347.863
340.985
332.995
323.862
313.636
302.483
290.713
278.779
361.524
361.284
360.796
360.045
359.006
357.647
355.928
353.798
351.198
348.061
344.314
339.882
334.691
328.681
321.82
314.118
305.646
296.558
287.099
277.592
348.039
347.811
347.349
346.64
345.663
344.393
342.794
340.828
338.448
335.605
332.245
328.317
323.776
318.594
312.763
306.313
299.32
291.916
284.289
276.673
336.363
336.151
335.722
335.065
334.163
332.996
331.535
329.751
327.609
325.071
322.102
318.668
314.745
310.32
305.403
300.031
294.275
288.241
282.076
275.951
326.302
326.108
325.716
325.117
324.298
323.242
321.927
320.332
318.43
316.196
313.604
310.635
307.277
303.53
299.41
294.954
290.225
285.309
280.318
275.377
317.673
317.498
317.145
316.606
315.872
314.929
313.762
312.354
310.686
308.74
306.501
303.959
301.108
297.956
294.521
290.838
286.96
282.955
278.91
274.919
310.305
310.149
309.834
309.356
308.706
307.875
306.85
305.621
304.173
302.495
300.579
298.418
296.015
293.378
290.527
287.492
284.317
281.058
277.778
274.551
304.039
303.902
303.625
303.205
302.636
301.911
301.021
299.957
298.712
297.278
295.651
293.828
291.814
289.619
287.262
284.768
282.174
279.523
276.865
274.254
298.733
298.613
298.372
298.007
297.514
296.887
296.121
295.21
294.148
292.932
291.559
290.031
288.352
286.533
284.591
282.548
280.432
278.278
276.125
274.014
294.258
294.154
293.947
293.632
293.209
292.672
292.018
291.243
290.345
289.32
288.169
286.895
285.502
284.002
282.407
280.737
279.015
277.268
275.525
273.819
290.498
290.41
290.232
289.964
289.603
289.147
288.593
287.939
287.184
286.326
285.367
284.31
283.16
281.927
280.622
279.261
277.862
276.447
275.038
273.661
287.352
287.277
287.126
286.899
286.594
286.209
285.743
285.195
284.564
283.851
283.056
282.183
281.239
280.229
279.164
278.058
276.924
275.78
274.643
273.533
284.73
284.666
284.539
284.348
284.092
283.77
283.381
282.924
282.4
281.81
281.154
280.438
279.664
278.84
277.975
277.078
276.161
275.238
274.322
273.429
282.552
282.499
282.393
282.233
282.02
281.751
281.428
281.05
280.618
280.132
279.594
279.007
278.377
277.707
277.006
276.281
275.541
274.798
274.062
273.344
280.75
280.706
280.618
280.486
280.309
280.087
279.82
279.509
279.154
278.756
278.316
277.839
277.327
276.784
276.218
275.633
275.039
274.442
273.851
273.276
279.266
279.23
279.157
279.048
278.902
278.719
278.501
278.246
277.955
277.631
277.274
276.886
276.472
276.034
275.578
275.108
274.631
274.153
273.681
273.221
278.047
278.018
277.958
277.868
277.749
277.6
277.421
277.213
276.977
276.714
276.425
276.112
275.778
275.426
275.06
274.684
274.302
273.92
273.543
273.176
277.051
277.027
276.978
276.905
276.808
276.686
276.541
276.373
276.182
275.969
275.736
275.484
275.216
274.934
274.641
274.341
274.036
273.732
273.432
273.14
276.239
276.219
276.18
276.121
276.042
275.944
275.826
275.69
275.536
275.365
275.178
274.977
274.762
274.537
274.304
274.065
273.823
273.581
273.343
273.111
275.58
275.564
275.533
275.485
275.421
275.342
275.248
275.139
275.015
274.878
274.729
274.568
274.397
274.218
274.032
273.843
273.651
273.46
273.271
273.088
275.048
275.035
275.009
274.971
274.92
274.857
274.781
274.694
274.596
274.486
274.367
274.239
274.104
273.962
273.815
273.665
273.514
273.362
273.214
273.069
274.619
274.609
274.589
274.558
274.517
274.467
274.407
274.337
274.259
274.172
274.078
273.977
273.869
273.757
273.641
273.523
273.404
273.285
273.168
273.054
274.275
274.267
274.251
274.227
274.194
274.154
274.107
274.052
273.99
273.921
273.847
273.767
273.682
273.594
273.503
273.41
273.317
273.223
273.132
273.043
274.001
273.994
273.982
273.962
273.937
273.905
273.867
273.824
273.775
273.721
273.663
273.6
273.534
273.464
273.393
273.32
273.247
273.174
273.103
273.033
273.782
273.777
273.767
273.752
273.732
273.707
273.677
273.643
273.605
273.563
273.517
273.468
273.416
273.362
273.306
273.25
273.193
273.136
273.08
273.026
273.609
273.605
273.598
273.586
273.57
273.55
273.527
273.5
273.471
273.438
273.402
273.363
273.323
273.281
273.238
273.194
273.149
273.105
273.062
273.02
273.473
273.47
273.464
273.454
273.442
273.427
273.409
273.388
273.365
273.339
273.311
273.281
273.25
273.218
273.184
273.15
273.116
273.082
273.048
273.016
273.366
273.364
273.359
273.351
273.342
273.33
273.316
273.3
273.282
273.262
273.24
273.217
273.193
273.168
273.142
273.116
273.089
273.063
273.037
273.012
273.282
273.28
273.277
273.271
273.264
273.254
273.244
273.231
273.217
273.202
273.185
273.167
273.149
273.129
273.109
273.089
273.069
273.048
273.028
273.009
273.217
273.216
273.213
273.209
273.203
273.196
273.187
273.178
273.167
273.155
273.142
273.129
273.114
273.099
273.084
273.068
273.053
273.037
273.022
273.007
273.167
273.166
273.164
273.161
273.156
273.151
273.144
273.137
273.129
273.119
273.109
273.099
273.088
273.076
273.065
273.053
273.04
273.029
273.017
273.005
273.129
273.128
273.127
273.124
273.121
273.116
273.111
273.106
273.099
273.092
273.084
273.076
273.068
273.059
273.05
273.04
273.031
273.022
273.013
273.004
273.101
273.1
273.099
273.097
273.094
273.091
273.087
273.082
273.077
273.072
273.066
273.059
273.053
273.046
273.039
273.031
273.024
273.017
273.01
273.003
273.08
273.079
273.078
273.077
273.075
273.072
273.069
273.065
273.061
273.057
273.052
273.047
273.042
273.036
273.031
273.025
273.019
273.014
273.008
273.003
273.065
273.065
273.064
273.063
273.061
273.059
273.056
273.053
273.05
273.046
273.043
273.038
273.034
273.03
273.025
273.02
273.016
273.011
273.007
273.002
273.056
273.056
273.055
273.054
273.052
273.051
273.048
273.046
273.043
273.04
273.037
273.033
273.029
273.025
273.021
273.017
273.013
273.009
273.006
273.002
273.052
273.051
273.051
273.05
273.048
273.047
273.045
273.042
273.04
273.037
273.034
273.03
273.027
273.023
273.02
273.016
273.012
273.009
273.005
273.002
)
;

boundaryField
{
    topWall
    {
        type            zeroGradient;
    }
    bottomWall
    {
        type            codedFixedValue;
        value           uniform 643;
        name            heating;
        code            #{
            const scalar t = this->db().time().value();
            const scalar Ttemp = 273 + 10*t;
            operator==(Ttemp);
        #};
    }
    sideWallL
    {
        type            symmetry;
    }
    sideWallR
    {
        type            fixedValue;
        value           uniform 273;
    }
    frontAndBack
    {
        type            empty;
    }
}


// ************************************************************************* //
