/*--------------------------------*- C++ -*----------------------------------*\
  =========                 |
  \\      /  F ield         | OpenFOAM: The Open Source CFD Toolbox
   \\    /   O peration     | Website:  https://openfoam.org
    \\  /    A nd           | Version:  7
     \\/     M anipulation  |
\*---------------------------------------------------------------------------*/
FoamFile
{
    version     2.0;
    format      ascii;
    class       volScalarField;
    location    "7";
    object      gradTy;
}
// * * * * * * * * * * * * * * * * * * * * * * * * * * * * * * * * * * * * * //

dimensions      [0 -1 0 1 0 0 0];

internalField   nonuniform List<scalar> 
900
(
-86164.1
-86165.2
-86167.7
-86172.4
-86181
-86196.1
-86222.8
-86269.2
-86349.8
-86488.9
-86728.4
-87140.7
-87852.9
-89093.9
-91291.9
-95291.3
-102882
-118218
-152030
-235238
-67831.5
-67832.5
-67834.6
-67838.7
-67846.1
-67859.1
-67881.7
-67920.9
-67988
-68102.1
-68295.1
-68619
-69159.9
-70057.1
-71532.1
-73911.1
-77564.2
-82369.8
-84944.7
-65860.9
-52620.1
-52620.8
-52622.4
-52625.5
-52630.9
-52640.3
-52656.4
-52683.6
-52729
-52803.7
-52924.3
-53114.8
-53406.8
-53833.1
-54402.6
-55016.2
-55224.3
-53573.6
-46070.9
-23733.4
-40178.3
-40178.8
-40179.7
-40181.5
-40184.5
-40189.7
-40198.1
-40211.6
-40232.6
-40263.8
-40307.5
-40362.1
-40415.3
-40425.1
-40279.9
-39710.6
-38117.3
-34274.2
-26022.2
-10735.7
-30165.1
-30165.2
-30165.5
-30166
-30166.7
-30167.7
-30168.8
-30169.5
-30168.3
-30161.4
-30140.6
-30087.7
-29965.4
-29699
-29143
-28027.8
-25883.6
-21978.4
-15409.5
-5699.15
-22247.7
-22247.6
-22247.3
-22246.7
-22245.5
-22243.1
-22238.3
-22229
-22211.1
-22177
-22112.6
-21992.6
-21771.9
-21372.7
-20664.8
-19441.7
-17403.8
-14180
-9459.93
-3320.4
-16105.5
-16105.2
-16104.5
-16103.1
-16100.6
-16095.8
-16087.2
-16071.6
-16043.7
-15994.4
-15908.1
-15759
-15505.1
-15080.6
-14386.8
-13286.1
-11607.9
-9184.11
-5938.52
-2030.55
-11435.8
-11435.4
-11434.4
-11432.6
-11429.3
-11423.3
-11412.8
-11394.4
-11362.7
-11308.7
-11218
-11068.1
-10824.9
-10439
-9842.64
-8951.61
-7675.82
-5947.29
-3768.71
-1270.39
-7959.73
-7959.29
-7958.24
-7956.26
-7952.71
-7946.48
-7935.71
-7917.33
-7886.41
-7835.16
-7751.65
-7618.11
-7409.18
-7090.47
-6618.67
-5945.02
-5024.81
-3834.83
-2397.44
-801.301
-5428.19
-5427.75
-5426.75
-5424.85
-5421.49
-5415.68
-5405.8
-5389.25
-5361.96
-5317.71
-5247.35
-5137.84
-4971.47
-4725.64
-4373.9
-3889.27
-3250.8
-2453.49
-1519.51
-505.078
-3625.46
-3625.08
-3624.19
-3622.52
-3619.6
-3614.61
-3606.24
-3592.44
-3570.07
-3534.49
-3479.08
-3394.76
-3269.77
-3089.89
-2839.54
-2504.31
-2075.03
-1553.06
-955.364
-316.355
-2370.78
-2370.46
-2369.72
-2368.36
-2365.98
-2361.97
-2355.32
-2344.5
-2327.23
-2300.21
-2258.88
-2197.2
-2107.67
-1981.61
-1810.14
-1585.81
-1304.95
-970.466
-593.988
-196.152
-1517.55
-1517.29
-1516.72
-1515.66
-1513.83
-1510.77
-1505.76
-1497.71
-1485.03
-1465.48
-1436.05
-1392.86
-1331.27
-1246.16
-1132.59
-986.795
-807.562
-597.578
-364.359
-120.075
-950.708
-950.52
-950.091
-949.308
-947.968
-945.746
-942.144
-936.42
-927.51
-913.952
-893.82
-864.714
-823.843
-768.257
-695.26
-603.02
-491.295
-362.111
-220.13
-72.4295
-582.864
-582.729
-582.425
-581.871
-580.93
-579.383
-576.898
-572.989
-566.971
-557.919
-544.642
-525.693
-499.439
-464.216
-418.586
-361.683
-293.597
-215.708
-130.82
-42.9902
-349.691
-349.599
-349.391
-349.015
-348.38
-347.344
-345.693
-343.121
-339.199
-333.361
-324.893
-312.943
-296.578
-274.879
-247.094
-212.827
-172.241
-126.218
-76.4007
-25.0818
-205.307
-205.246
-205.109
-204.862
-204.449
-203.779
-202.721
-201.085
-198.613
-194.968
-189.731
-182.415
-172.498
-159.483
-142.982
-122.823
-99.1501
-72.5008
-43.8165
-14.373
-117.962
-117.923
-117.836
-117.68
-117.42
-117.001
-116.344
-115.336
-113.826
-111.617
-108.472
-104.117
-98.2671
-90.6569
-81.0913
-69.4987
-55.9842
-40.8634
-24.664
-8.08506
-66.3333
-66.3094
-66.2558
-66.1603
-66.0017
-65.7482
-65.3528
-64.7505
-63.8545
-62.5542
-60.7167
-58.1928
-54.8291
-50.4873
-45.0706
-38.5516
-30.9987
-22.5919
-13.621
-4.46259
-36.5108
-36.4965
-36.4646
-36.4078
-36.3141
-36.165
-35.9339
-35.5841
-35.0672
-34.3223
-33.277
-31.8513
-29.9645
-27.5459
-24.548
-20.9617
-16.8288
-12.249
-7.3783
-2.41619
-19.6728
-19.6645
-19.646
-19.6132
-19.5594
-19.4742
-19.3429
-19.1453
-18.855
-18.4392
-17.8596
-17.074
-16.0408
-14.7243
-13.1019
-11.1713
-8.95669
-6.51199
-3.91947
-1.28301
-10.3784
-10.3737
-10.3633
-10.3449
-10.3149
-10.2675
-10.1948
-10.0861
-9.92721
-9.70099
-9.38738
-8.96477
-8.41207
-7.71162
-6.85275
-5.83542
-4.67313
-3.39436
-2.04162
-0.668086
-5.36152
-5.35895
-5.35325
-5.34321
-5.32684
-5.30118
-5.26201
-5.20367
-5.11888
-4.99877
-4.83311
-4.61103
-4.32203
-3.95754
-3.51262
-2.98774
-2.3902
-1.73469
-1.04276
-0.341126
-2.71279
-2.71142
-2.70838
-2.70303
-2.69436
-2.6808
-2.66021
-2.62967
-2.5855
-2.52322
-2.43774
-2.32367
-2.1759
-1.99032
-1.7647
-1.4995
-1.19852
-0.869188
-0.52222
-0.170795
-1.34463
-1.34391
-1.34233
-1.33955
-1.33506
-1.32808
-1.31751
-1.30191
-1.27944
-1.24788
-1.20476
-1.14746
-1.07354
-0.981061
-0.86903
-0.737768
-0.589215
-0.427033
-0.256451
-0.0838557
-0.653027
-0.652663
-0.651859
-0.650454
-0.648189
-0.644675
-0.639379
-0.631589
-0.620413
-0.604786
-0.583512
-0.555352
-0.519157
-0.474035
-0.419548
-0.355892
-0.28403
-0.205732
-0.123502
-0.0403756
-0.310813
-0.310632
-0.310233
-0.309539
-0.308422
-0.306695
-0.3041
-0.300299
-0.294865
-0.287294
-0.277024
-0.263479
-0.246126
-0.224562
-0.198599
-0.168346
-0.134268
-0.0972048
-0.0583318
-0.0190669
-0.145011
-0.144923
-0.14473
-0.144395
-0.143856
-0.143026
-0.141784
-0.139969
-0.137384
-0.133795
-0.128942
-0.122562
-0.114413
-0.104317
-0.0921925
-0.0780977
-0.062253
-0.0450482
-0.0270245
-0.0088322
-0.0663342
-0.0662926
-0.0662011
-0.0660425
-0.0657887
-0.0653987
-0.0648165
-0.0639689
-0.0627652
-0.0610991
-0.0588535
-0.0559097
-0.0521607
-0.0475276
-0.0419773
-0.0355387
-0.028314
-0.0204804
-0.0122828
-0.00401376
-0.0297582
-0.0297389
-0.0296966
-0.0296233
-0.0295062
-0.0293269
-0.0290599
-0.0286723
-0.0281234
-0.0273659
-0.0263479
-0.0250169
-0.0233264
-0.0212421
-0.0187507
-0.0158662
-0.0126348
-0.00913578
-0.00547765
-0.00178978
-0.0130953
-0.0130865
-0.0130673
-0.0130341
-0.0129813
-0.0129005
-0.0127806
-0.012607
-0.0123619
-0.0120244
-0.0115721
-0.0109823
-0.0102348
-0.00931536
-0.0082185
-0.00695083
-0.00553283
-0.00399924
-0.00239732
-0.00078323
-0.00565408
-0.00565018
-0.00564166
-0.00562697
-0.00560361
-0.00556799
-0.00551523
-0.00543904
-0.00533173
-0.00518439
-0.00498737
-0.00473104
-0.00440694
-0.00400908
-0.00353532
-0.00298868
-0.00237805
-0.00171838
-0.00102986
-0.000336435
-0.00239582
-0.00239413
-0.00239042
-0.00238404
-0.00237392
-0.00235853
-0.00233578
-0.00230301
-0.00225695
-0.00219387
-0.00210971
-0.00200045
-0.00186259
-0.00169366
-0.00149286
-0.00126151
-0.00100341
-0.00072486
-0.000434342
-0.00014188
-0.000996547
-0.000995824
-0.000994246
-0.000991532
-0.000987235
-0.000980713
-0.000971095
-0.000957271
-0.000937889
-0.000911396
-0.000876126
-0.000830432
-0.000772884
-0.000702493
-0.000618951
-0.000522835
-0.000415729
-0.000300244
-0.000179878
-5.87534e-05
-0.000407004
-0.000406702
-0.000406043
-0.00040491
-0.00040312
-0.00040041
-0.000396423
-0.000390703
-0.0003827
-0.000371783
-0.000357277
-0.000338522
-0.000314942
-0.000286146
-0.000252022
-0.000212812
-0.000169165
-0.000122144
-7.31647e-05
-2.38962e-05
-0.000163253
-0.000163131
-0.000162861
-0.000162396
-0.000161667
-0.000160561
-0.000158939
-0.000156616
-0.000153372
-0.000148957
-0.000143101
-0.000135543
-0.000126057
-0.000114491
-0.000100802
-8.50914e-05
-6.76203e-05
-4.88145e-05
-2.9236e-05
-9.54826e-06
-6.43269e-05
-6.42781e-05
-6.417e-05
-6.39842e-05
-6.36908e-05
-6.32483e-05
-6.25993e-05
-6.16745e-05
-6.03843e-05
-5.86296e-05
-5.63091e-05
-5.33177e-05
-4.95696e-05
-4.50069e-05
-3.96135e-05
-3.34297e-05
-2.65601e-05
-1.91702e-05
-1.148e-05
-3.75015e-06
-2.4905e-05
-2.48858e-05
-2.48423e-05
-2.47706e-05
-2.46549e-05
-2.44811e-05
-2.42258e-05
-2.38635e-05
-2.33612e-05
-2.26785e-05
-2.1774e-05
-2.06112e-05
-1.9157e-05
-1.73872e-05
-1.52986e-05
-1.29071e-05
-1.02532e-05
-7.399e-06
-4.431e-06
-1.44724e-06
-9.47694e-06
-9.4678e-06
-9.45018e-06
-9.42239e-06
-9.37801e-06
-9.31143e-06
-9.21521e-06
-9.07596e-06
-8.88487e-06
-8.62347e-06
-8.2767e-06
-7.8315e-06
-7.27737e-06
-6.60347e-06
-5.80777e-06
-4.89907e-06
-3.89059e-06
-2.80893e-06
-1.6817e-06
-5.482e-07
-3.54737e-06
-3.54229e-06
-3.53568e-06
-3.52332e-06
-3.50587e-06
-3.48249e-06
-3.44658e-06
-3.39491e-06
-3.32223e-06
-3.2233e-06
-3.0937e-06
-2.92582e-06
-2.71779e-06
-2.46622e-06
-2.16942e-06
-1.82891e-06
-1.45317e-06
-1.04846e-06
-6.28329e-07
-2.05829e-07
-1.3068e-06
-1.30528e-06
-1.30291e-06
-1.29833e-06
-1.29139e-06
-1.28156e-06
-1.26801e-06
-1.24836e-06
-1.22074e-06
-1.18483e-06
-1.13824e-06
-1.07658e-06
-1.00085e-06
-9.07511e-07
-7.98583e-07
-6.72544e-07
-5.33292e-07
-3.84214e-07
-2.30562e-07
-7.53859e-08
-4.7095e-07
-4.71967e-07
-4.71797e-07
-4.69595e-07
-4.67901e-07
-4.63835e-07
-4.59261e-07
-4.51638e-07
-4.40627e-07
-4.28937e-07
-4.13013e-07
-3.91329e-07
-3.63885e-07
-3.30004e-07
-2.89346e-07
-2.44284e-07
-1.92615e-07
-1.39591e-07
-8.35174e-08
-2.65968e-08
-1.63986e-07
-1.6568e-07
-1.6568e-07
-1.66018e-07
-1.65341e-07
-1.64833e-07
-1.63139e-07
-1.61275e-07
-1.56532e-07
-1.52297e-07
-1.47384e-07
-1.39591e-07
-1.29088e-07
-1.18415e-07
-1.04693e-07
-8.91079e-08
-7.03037e-08
-5.03138e-08
-3.18484e-08
-1.11808e-08
-5.45489e-08
-5.5396e-08
-5.48877e-08
-5.67512e-08
-5.709e-08
-5.60736e-08
-5.52265e-08
-5.55654e-08
-5.59042e-08
-5.28549e-08
-5.06526e-08
-4.79421e-08
-4.45539e-08
-4.18434e-08
-3.74389e-08
-3.32037e-08
-2.52416e-08
-1.84653e-08
-1.16891e-08
-3.38813e-09
-1.28749e-08
-1.27055e-08
-1.35525e-08
-1.42302e-08
-1.42302e-08
-1.33831e-08
-1.35525e-08
-1.35525e-08
-1.49078e-08
-1.33831e-08
-1.18585e-08
-1.20279e-08
-1.13502e-08
-1.0842e-08
-9.99499e-09
-1.01644e-08
-6.26804e-09
-5.42101e-09
-2.20229e-09
3.38813e-10
)
;

boundaryField
{
    topWall
    {
        type            calculated;
        value           uniform 0;
    }
    bottomWall
    {
        type            calculated;
        value           nonuniform List<scalar> 
20
(
-96155.4
-96156.5
-96159.1
-96164
-96173
-96188.8
-96216.6
-96265.3
-96350
-96496.6
-96750.3
-97189.8
-97955.7
-99308.7
-101758
-106383
-115762
-137035
-193438
-372010
)
;
    }
    sideWallL
    {
        type            symmetry;
    }
    sideWallR
    {
        type            calculated;
        value           nonuniform List<scalar> 
45
(
-235238
-65860.9
-23733.4
-10735.7
-5699.15
-3320.4
-2030.55
-1270.39
-801.301
-505.078
-316.355
-196.152
-120.075
-72.4295
-42.9902
-25.0818
-14.373
-8.08506
-4.46259
-2.41619
-1.28301
-0.668086
-0.341126
-0.170795
-0.0838557
-0.0403756
-0.0190669
-0.0088322
-0.00401376
-0.00178978
-0.00078323
-0.000336435
-0.00014188
-5.87534e-05
-2.38962e-05
-9.54826e-06
-3.75015e-06
-1.44724e-06
-5.482e-07
-2.05829e-07
-7.53859e-08
-2.65968e-08
-1.11808e-08
-3.38813e-09
3.38813e-10
)
;
    }
    frontAndBack
    {
        type            empty;
    }
}


// ************************************************************************* //
