/*--------------------------------*- C++ -*----------------------------------*\
  =========                 |
  \\      /  F ield         | OpenFOAM: The Open Source CFD Toolbox
   \\    /   O peration     | Website:  https://openfoam.org
    \\  /    A nd           | Version:  7
     \\/     M anipulation  |
\*---------------------------------------------------------------------------*/
FoamFile
{
    version     2.0;
    format      ascii;
    class       volScalarField;
    location    "7";
    object      gradTx;
}
// * * * * * * * * * * * * * * * * * * * * * * * * * * * * * * * * * * * * * //

dimensions      [0 -1 0 1 0 0 0];

internalField   nonuniform List<scalar> 
900
(
-0.274802
-0.918325
-1.87379
-3.45843
-6.18615
-10.9213
-19.1339
-33.3336
-57.8282
-100.086
-173.284
-301.355
-529.729
-950.482
-1768.58
-3501.12
-7663.02
-19419.1
-58743.7
-208638
-0.783311
-2.61617
-5.33245
-9.8273
-17.5448
-30.9022
-53.9853
-93.7175
-161.861
-278.524
-478.489
-823.084
-1423.45
-2488.53
-4428.79
-8088.52
-15263.4
-29729.3
-58276.8
-104094
-1.19673
-3.99275
-8.12209
-14.9265
-26.5537
-46.5662
-80.9188
-139.56
-239.086
-407.185
-690.2
-1166.19
-1967.82
-3322.65
-5622.52
-9533.24
-16121.7
-26799.6
-42234.8
-57832.3
-1.47781
-4.9233
-9.98725
-18.2827
-32.364
-56.4147
-97.322
-166.376
-281.959
-473.795
-789.622
-1305.55
-2141.71
-3484.32
-5611.93
-8910.23
-13820.7
-20576
-28436.6
-34289.7
-1.61273
-5.36314
-10.8425
-19.7539
-34.7588
-60.1504
-102.868
-174.038
-291.271
-482.049
-788.53
-1274.02
-2030.79
-3187.27
-4908.04
-7370.67
-10685.3
-14704.5
-18696.3
-21074.4
-1.61103
-5.34652
-10.7672
-19.5109
-34.0998
-58.5326
-99.1447
-165.846
-273.861
-446.056
-715.86
-1130.42
-1752.99
-2661.88
-3940.79
-5650.82
-7771.25
-10101.9
-12157.3
-13181.1
-1.49988
-4.96659
-9.96031
-17.944
-31.1348
-52.9842
-88.8454
-146.882
-239.246
-383.5
-604.08
-933.313
-1410.94
-2080.15
-2977.08
-4109.68
-5423.57
-6760.65
-7836.69
-8294.03
-1.31554
-4.34606
-8.67788
-15.5392
-26.7609
-45.1399
-74.9208
-122.411
-196.711
-310.47
-480.437
-727.374
-1074.54
-1543.57
-2146.37
-2871.93
-3669.22
-4432.53
-5003.78
-5212
-1.09491
-3.60864
-7.17349
-12.7667
-21.8208
-36.4829
-59.9418
-96.8156
-153.565
-238.83
-363.506
-540.224
-781.768
-1097.85
-1489.72
-1942.86
-2419.26
-2853.54
-3159.79
-3254.93
-0.869267
-2.85817
-5.65651
-10.0057
-16.9744
-28.1348
-45.7724
-73.1155
-114.546
-175.708
-263.382
-384.906
-546.902
-753.058
-1000.91
-1278.06
-1559.03
-1805.17
-1970.25
-2013.26
-0.66093
-2.1681
-4.27214
-7.51182
-12.6512
-20.7938
-33.5111
-52.9695
-82.0255
-124.227
-183.635
-264.342
-369.571
-500.278
-653.349
-819.757
-983.471
-1122.25
-1211.38
-1230.34
-0.482801
-1.58018
-3.10051
-5.42023
-9.06476
-14.7798
-23.606
-36.9454
-56.5958
-84.7129
-123.649
-175.601
-242.028
-322.82
-415.333
-513.549
-607.786
-685.505
-733.543
-741.541
-0.339722
-1.10946
-2.16804
-3.7691
-6.26129
-10.1311
-16.0448
-24.8803
-37.7336
-55.8755
-80.6276
-113.129
-153.977
-202.757
-257.55
-314.562
-368.128
-411.289
-437.064
-440.197
-0.230765
-0.752053
-1.4639
-2.53151
-4.1787
-6.71278
-10.547
-16.2149
-24.3656
-35.7275
-51.0234
-70.8231
-95.333
-124.14
-155.967
-188.522
-218.569
-242.302
-256.04
-257.108
-0.151605
-0.493093
-0.956278
-1.64538
-2.6997
-4.30758
-6.718
-10.2461
-15.2663
-22.1856
-31.3892
-43.152
-57.5199
-74.1741
-92.3129
-110.598
-127.219
-140.124
-147.383
-147.637
-0.0964839
-0.31322
-0.605317
-1.03658
-1.69119
-2.68134
-4.15297
-6.2874
-9.29523
-13.3986
-18.7977
-25.6203
-33.8562
-43.2875
-53.4332
-63.5326
-72.5945
-79.5246
-83.3214
-83.2973
-0.0595661
-0.193028
-0.371806
-0.633862
-1.02867
-1.62127
-2.49503
-3.75168
-5.50693
-7.87926
-10.9704
-14.8372
-19.4566
-24.6904
-30.2604
-35.745
-40.6108
-44.283
-46.2464
-46.155
-0.0357175
-0.115551
-0.22188
-0.376678
-0.60826
-0.953374
-1.45846
-2.17927
-3.17793
-4.51632
-6.24501
-8.38795
-10.9244
-13.7714
-16.773
-19.7006
-22.2725
-24.1909
-25.1936
-25.1078
-0.0208245
-0.0672637
-0.128782
-0.217768
-0.350018
-0.545785
-0.830327
-1.23351
-1.78799
-2.52538
-3.4703
-4.63219
-5.99616
-7.51456
-9.10219
-10.638
-11.9755
-12.9628
-13.4681
-13.4059
-0.0118168
-0.0381121
-0.0727686
-0.122597
-0.196193
-0.304456
-0.460812
-0.680908
-0.981542
-1.37857
-1.8837
-2.50031
-3.21887
-4.01295
-4.8372
-5.62874
-6.3129
-6.81321
-7.06424
-7.02423
-0.00653189
-0.0210377
-0.0400646
-0.0672657
-0.107208
-0.165624
-0.24949
-0.366832
-0.526115
-0.735134
-0.999345
-1.31976
-1.69071
-2.09798
-2.518
-2.91877
-3.26284
-3.51235
-3.63525
-3.61138
-0.00351994
-0.0113221
-0.0215101
-0.0359971
-0.0571543
-0.0879284
-0.131868
-0.193002
-0.275515
-0.383165
-0.51844
-0.681525
-0.869221
-1.0741
-1.28418
-1.4835
-1.65358
-1.77599
-1.83526
-1.82176
-0.00185056
-0.00594516
-0.0112692
-0.0188018
-0.0297466
-0.0455853
-0.0680848
-0.0992274
-0.14104
-0.195302
-0.263124
-0.344452
-0.437558
-0.538658
-0.641798
-0.73915
-0.821783
-0.880845
-0.908981
-0.901667
-0.000949788
-0.00304782
-0.00576497
-0.0095911
-0.0151237
-0.0230924
-0.0343584
-0.0498778
-0.070614
-0.0973929
-0.130701
-0.170449
-0.215736
-0.26468
-0.314383
-0.361082
-0.40053
-0.428549
-0.441697
-0.437874
-0.000476183
-0.0015264
-0.00288144
-0.00478105
-0.00751554
-0.0114366
-0.0169556
-0.0245246
-0.034593
-0.0475372
-0.063566
-0.0826092
-0.104212
-0.127461
-0.150972
-0.172973
-0.191475
-0.204543
-0.210588
-0.208652
-0.00023334
-0.00074721
-0.0014079
-0.00233023
-0.00365231
-0.00554018
-0.00818652
-0.0118009
-0.016589
-0.0227194
-0.0302797
-0.0392257
-0.0493341
-0.0601709
-0.0710892
-0.0812679
-0.0897947
-0.0957854
-0.0985199
-0.0975669
-0.000111816
-0.00035772
-0.000672833
-0.001111
-0.00173657
-0.00262638
-0.00386889
-0.00555942
-0.00779039
-0.010636
-0.0141321
-0.0182538
-0.0228944
-0.0278519
-0.0328298
-0.0374549
-0.0413155
-0.0440148
-0.0452316
-0.0447747
-5.24244e-05
-0.000167564
-0.000314648
-0.000518405
-0.000808225
-0.00121896
-0.00179042
-0.00256519
-0.00358402
-0.00487899
-0.0064645
-0.00832738
-0.0104179
-0.012644
-0.0148725
-0.0169366
-0.0186539
-0.0198494
-0.0203819
-0.0201682
-2.40593e-05
-7.6833e-05
-0.000144051
-0.000236844
-0.000368361
-0.000554108
-0.000811675
-0.00115971
-0.00161588
-0.0021938
-0.00289913
-0.00372527
-0.00464954
-0.00563095
-0.00661057
-0.00751545
-0.00826602
-0.00878638
-0.00901562
-0.00891797
-1.08112e-05
-3.45e-05
-6.45903e-05
-0.000105992
-0.000164474
-0.000246802
-0.000360602
-0.000513895
-0.000714202
-0.000967207
-0.00127508
-0.00163464
-0.0020358
-0.00246062
-0.00288357
-0.00327325
-0.00359558
-0.00381821
-0.00391527
-0.00387165
-4.75948e-06
-1.51763e-05
-2.8377e-05
-4.64825e-05
-7.19717e-05
-0.000107747
-0.000157053
-0.000223279
-0.000309566
-0.000418246
-0.000550133
-0.000703757
-0.000874711
-0.0010553
-0.00123467
-0.00139954
-0.00153558
-0.0016292
-0.00166962
-0.00165055
-2.05321e-06
-6.54316e-06
-1.22201e-05
-1.99839e-05
-3.08774e-05
-4.61238e-05
-6.70804e-05
-9.51491e-05
-0.000131624
-0.000177444
-0.000232908
-0.000297353
-0.000368899
-0.000444305
-0.000519037
-0.00058758
-0.000643999
-0.000682706
-0.000699261
-0.000691094
-8.68378e-07
-2.76505e-06
-5.16029e-06
-8.42561e-06
-1.29913e-05
-1.93666e-05
-2.81066e-05
-3.97812e-05
-5.49162e-05
-7.38824e-05
-9.67854e-05
-0.000123335
-0.000152746
-0.000183678
-0.000214272
-0.000242276
-0.000265276
-0.000281008
-0.000287679
-0.000284252
-3.61005e-07
-1.14688e-06
-2.13673e-06
-3.48503e-06
-5.3629e-06
-7.9782e-06
-1.15554e-05
-1.63237e-05
-2.24899e-05
-3.01989e-05
-3.9488e-05
-5.02311e-05
-6.21077e-05
-7.45774e-05
-8.68849e-05
-9.81315e-05
-0.00010735
-0.000113637
-0.000116281
-0.000114872
-1.44843e-07
-4.64174e-07
-8.68039e-07
-1.4137e-06
-2.17196e-06
-3.22703e-06
-4.66512e-06
-6.57569e-06
-9.04123e-06
-1.21192e-05
-1.58212e-05
-2.00925e-05
-2.48062e-05
-2.97453e-05
-3.46135e-05
-3.9054e-05
-4.26854e-05
-4.51574e-05
-4.61885e-05
-4.56212e-05
-5.89535e-08
-1.85161e-07
-3.44573e-07
-5.62769e-07
-8.63465e-07
-1.28122e-06
-1.84873e-06
-2.59971e-06
-3.56957e-06
-4.77676e-06
-6.22637e-06
-7.89587e-06
-9.73241e-06
-1.16575e-05
-1.35508e-05
-1.52742e-05
-1.66811e-05
-1.76371e-05
-1.80337e-05
-1.78116e-05
-2.28699e-08
-7.21672e-08
-1.33323e-07
-2.19382e-07
-3.37119e-07
-4.99072e-07
-7.19809e-07
-1.00899e-06
-1.38185e-06
-1.84823e-06
-2.40744e-06
-3.04881e-06
-3.75388e-06
-4.49029e-06
-5.214e-06
-5.87231e-06
-6.40899e-06
-6.77237e-06
-6.92246e-06
-6.83708e-06
-9.65618e-09
-2.81215e-08
-5.06526e-08
-8.35174e-08
-1.27394e-07
-1.90074e-07
-2.75116e-07
-3.84553e-07
-5.24313e-07
-7.02021e-07
-9.14457e-07
-1.1562e-06
-1.42217e-06
-1.70135e-06
-1.97359e-06
-2.22058e-06
-2.4215e-06
-2.55719e-06
-2.61394e-06
-2.58091e-06
-3.89635e-09
-9.65618e-09
-1.79571e-08
-3.20178e-08
-4.72644e-08
-7.01343e-08
-1.02322e-07
-1.44504e-07
-1.9685e-07
-2.60886e-07
-3.40338e-07
-4.31309e-07
-5.29904e-07
-6.32395e-07
-7.34039e-07
-8.26874e-07
-9.00565e-07
-9.50202e-07
-9.70361e-07
-9.5918e-07
-5.0822e-10
-1.18585e-09
-5.0822e-09
-1.13502e-08
-1.71101e-08
-2.69356e-08
-3.94717e-08
-5.43795e-08
-7.18284e-08
-9.38513e-08
-1.22481e-07
-1.56532e-07
-1.94479e-07
-2.31918e-07
-2.68509e-07
-3.03577e-07
-3.31698e-07
-3.47792e-07
-3.53721e-07
-3.50672e-07
8.47033e-10
1.69407e-09
8.47033e-10
-2.37169e-09
-6.26804e-09
-1.05032e-08
-1.50772e-08
-2.01594e-08
-2.49028e-08
-3.25261e-08
-4.25211e-08
-5.57348e-08
-6.99649e-08
-8.40257e-08
-9.72394e-08
-1.10284e-07
-1.20279e-07
-1.2553e-07
-1.27733e-07
-1.25022e-07
1.18585e-09
2.87991e-09
1.86347e-09
3.38813e-10
-5.0822e-10
-3.72694e-09
-5.92923e-09
-6.94567e-09
-8.47033e-09
-1.13502e-08
-1.4569e-08
-1.94818e-08
-2.5411e-08
-2.89685e-08
-3.35425e-08
-3.82859e-08
-4.35375e-08
-4.5401e-08
-4.43845e-08
-4.48927e-08
0
8.47033e-10
2.5411e-09
2.03288e-09
-3.38813e-10
-2.37169e-09
-2.71051e-09
-1.18585e-09
-2.5411e-09
-4.91279e-09
-5.0822e-09
-6.26804e-09
-8.47033e-09
-9.99499e-09
-1.16891e-08
-1.35525e-08
-1.5416e-08
-1.60936e-08
-1.49078e-08
-1.47384e-08
-3.38813e-10
1.18585e-09
2.03288e-09
5.0822e-10
3.38813e-10
-1.52466e-09
-2.20229e-09
-6.77626e-10
3.38813e-10
-2.03288e-09
-1.35525e-09
-1.69407e-09
-4.06576e-09
-4.23516e-09
-3.89635e-09
-4.06576e-09
-5.0822e-09
-6.77626e-09
-5.42101e-09
-2.03288e-09
-8.47033e-10
5.0822e-10
8.47033e-10
-1.69407e-10
1.01644e-09
-5.0822e-10
-2.87991e-09
-1.69407e-09
6.77626e-10
5.0822e-10
0
-8.47033e-10
-2.5411e-09
-2.87991e-09
-3.38813e-09
-5.0822e-10
-6.77626e-10
-2.87991e-09
6.77626e-10
0
)
;

boundaryField
{
    topWall
    {
        type            calculated;
        value           nonuniform List<scalar> 
20
(
-8.47033e-10
5.0822e-10
8.47033e-10
-1.69407e-10
1.01644e-09
-5.0822e-10
-2.87991e-09
-1.69407e-09
6.77626e-10
5.0822e-10
0
-8.47033e-10
-2.5411e-09
-2.87991e-09
-3.38813e-09
-5.0822e-10
-6.77626e-10
-2.87991e-09
6.77626e-10
0
)
;
    }
    bottomWall
    {
        type            calculated;
        value           nonuniform List<scalar> 
20
(
-0.274802
-0.918325
-1.87379
-3.45843
-6.18615
-10.9213
-19.1339
-33.3336
-57.8282
-100.086
-173.284
-301.355
-529.729
-950.482
-1768.58
-3501.12
-7663.02
-19419.1
-58743.7
-208638
)
;
    }
    sideWallL
    {
        type            symmetry;
    }
    sideWallR
    {
        type            calculated;
        value           nonuniform List<scalar> 
45
(
-327990
-131057
-64546.6
-36123.9
-21603.7
-13327.3
-8322.09
-5205.15
-3240.53
-1999.95
-1220.22
-734.531
-435.611
-254.231
-145.893
-82.2704
-45.5662
-24.7785
-13.2259
-6.9281
-3.56114
-1.79606
-0.888797
-0.431559
-0.205616
-0.0961361
-0.0441136
-0.0198686
-0.00878481
-0.00381357
-0.00162568
-0.000680647
-0.000279941
-0.000113125
-4.49273e-05
-1.75413e-05
-6.73481e-06
-2.54033e-06
-9.45874e-07
-3.46745e-07
-1.2335e-07
-4.54747e-08
-1.59162e-08
-1.13687e-09
-2.27374e-09
)
;
    }
    frontAndBack
    {
        type            empty;
    }
}


// ************************************************************************* //
