/*--------------------------------*- C++ -*----------------------------------*\
  =========                 |
  \\      /  F ield         | OpenFOAM: The Open Source CFD Toolbox
   \\    /   O peration     | Website:  https://openfoam.org
    \\  /    A nd           | Version:  7
     \\/     M anipulation  |
\*---------------------------------------------------------------------------*/
FoamFile
{
    version     2.0;
    format      ascii;
    class       volScalarField;
    location    "7";
    object      rhoc;
}
// * * * * * * * * * * * * * * * * * * * * * * * * * * * * * * * * * * * * * //

dimensions      [1 -3 0 0 0 0 0];

internalField   nonuniform List<scalar> 
900
(
9.20092e-24
9.20075e-24
9.20035e-24
9.19956e-24
9.19808e-24
9.19539e-24
9.1905e-24
9.18171e-24
9.16598e-24
9.138e-24
9.08843e-24
9.00084e-24
8.84623e-24
8.57295e-24
8.08847e-24
7.22852e-24
5.72592e-24
3.33462e-24
7.63422e-25
5.6942e-27
1.26044e-25
1.26037e-25
1.26021e-25
1.25989e-25
1.25929e-25
1.25819e-25
1.2562e-25
1.25264e-25
1.24629e-25
1.23509e-25
1.2155e-25
1.18163e-25
1.12398e-25
1.02823e-25
8.75918e-26
6.52576e-26
3.74358e-26
1.26363e-26
1.42408e-27
2.15133e-29
3.69376e-27
3.69345e-27
3.69271e-27
3.69127e-27
3.68859e-27
3.68372e-27
3.67492e-27
3.65922e-27
3.63144e-27
3.58289e-27
3.49927e-27
3.35802e-27
3.126e-27
2.76121e-27
2.22735e-27
1.53555e-27
8.07934e-28
2.70563e-28
4.58633e-29
3.95404e-30
2.34672e-28
2.34649e-28
2.34595e-28
2.34489e-28
2.34293e-28
2.33936e-28
2.33296e-28
2.32158e-28
2.30161e-28
2.26706e-28
2.2084e-28
2.11124e-28
1.95589e-28
1.72021e-28
1.39036e-28
9.82889e-29
5.67146e-29
2.47051e-29
7.85934e-30
2.09855e-30
3.15528e-29
3.15499e-29
3.1543e-29
3.15295e-29
3.15045e-29
3.14594e-29
3.13786e-29
3.12359e-29
3.09874e-29
3.05615e-29
2.9847e-29
2.86804e-29
2.68458e-29
2.41087e-29
2.03232e-29
1.56244e-29
1.06092e-29
6.224e-30
3.20519e-30
1.57647e-30
8.26022e-30
8.2596e-30
8.25813e-30
8.25527e-30
8.25e-30
8.2405e-30
8.22361e-30
8.19396e-30
8.1427e-30
8.05566e-30
7.91107e-30
7.67749e-30
7.31364e-30
6.77377e-30
6.02355e-30
5.06847e-30
3.98336e-30
2.91184e-30
2.00963e-30
1.36355e-30
3.61165e-30
3.61145e-30
3.61098e-30
3.61007e-30
3.60839e-30
3.60539e-30
3.60008e-30
3.59082e-30
3.57496e-30
3.54826e-30
3.50435e-30
3.43407e-30
3.32544e-30
3.16471e-30
2.93991e-30
2.64705e-30
2.2977e-30
1.92234e-30
1.56369e-30
1.26063e-30
2.21875e-30
2.21866e-30
2.21846e-30
2.21807e-30
2.21736e-30
2.21609e-30
2.21386e-30
2.21e-30
2.20346e-30
2.19256e-30
2.17482e-30
2.14672e-30
2.10366e-30
2.04029e-30
1.9515e-30
1.83438e-30
1.69059e-30
1.52827e-30
1.36146e-30
1.20647e-30
1.67301e-30
1.67296e-30
1.67286e-30
1.67266e-30
1.67229e-30
1.67165e-30
1.67052e-30
1.66859e-30
1.66535e-30
1.66002e-30
1.65143e-30
1.63799e-30
1.61761e-30
1.58786e-30
1.54635e-30
1.49143e-30
1.42315e-30
1.34408e-30
1.25956e-30
1.17671e-30
1.42084e-30
1.42081e-30
1.42075e-30
1.42064e-30
1.42043e-30
1.42006e-30
1.41943e-30
1.41835e-30
1.41657e-30
1.41366e-30
1.40904e-30
1.40191e-30
1.39121e-30
1.37577e-30
1.3544e-30
1.32623e-30
1.29111e-30
1.25003e-30
1.20523e-30
1.16001e-30
1.29248e-30
1.29246e-30
1.29243e-30
1.29236e-30
1.29223e-30
1.29201e-30
1.29163e-30
1.291e-30
1.28996e-30
1.28829e-30
1.28566e-30
1.28165e-30
1.27573e-30
1.26728e-30
1.2557e-30
1.24055e-30
1.22173e-30
1.19967e-30
1.17543e-30
1.15058e-30
1.22354e-30
1.22353e-30
1.22351e-30
1.22347e-30
1.22339e-30
1.22325e-30
1.22302e-30
1.22264e-30
1.22202e-30
1.22103e-30
1.2195e-30
1.2172e-30
1.21383e-30
1.20909e-30
1.20267e-30
1.19435e-30
1.18409e-30
1.17209e-30
1.15889e-30
1.14525e-30
1.18552e-30
1.18552e-30
1.1855e-30
1.18547e-30
1.18543e-30
1.18534e-30
1.1852e-30
1.18497e-30
1.1846e-30
1.18401e-30
1.18311e-30
1.18178e-30
1.17986e-30
1.17719e-30
1.17361e-30
1.16902e-30
1.1634e-30
1.15687e-30
1.14969e-30
1.14226e-30
1.16435e-30
1.16435e-30
1.16434e-30
1.16432e-30
1.16429e-30
1.16424e-30
1.16416e-30
1.16402e-30
1.1638e-30
1.16345e-30
1.16293e-30
1.16216e-30
1.16107e-30
1.15957e-30
1.15759e-30
1.15507e-30
1.15201e-30
1.14847e-30
1.1446e-30
1.14059e-30
1.15259e-30
1.15258e-30
1.15258e-30
1.15257e-30
1.15255e-30
1.15252e-30
1.15247e-30
1.15238e-30
1.15225e-30
1.15205e-30
1.15176e-30
1.15132e-30
1.15071e-30
1.14988e-30
1.14879e-30
1.14742e-30
1.14577e-30
1.14388e-30
1.14181e-30
1.13968e-30
1.1461e-30
1.14609e-30
1.14609e-30
1.14608e-30
1.14607e-30
1.14606e-30
1.14603e-30
1.14598e-30
1.1459e-30
1.14579e-30
1.14562e-30
1.14538e-30
1.14504e-30
1.14459e-30
1.144e-30
1.14327e-30
1.14239e-30
1.14139e-30
1.1403e-30
1.13918e-30
1.14256e-30
1.14256e-30
1.14256e-30
1.14256e-30
1.14255e-30
1.14254e-30
1.14252e-30
1.14249e-30
1.14245e-30
1.14239e-30
1.1423e-30
1.14216e-30
1.14198e-30
1.14174e-30
1.14143e-30
1.14104e-30
1.14058e-30
1.14006e-30
1.1395e-30
1.13892e-30
1.14067e-30
1.14067e-30
1.14067e-30
1.14066e-30
1.14066e-30
1.14065e-30
1.14065e-30
1.14063e-30
1.14061e-30
1.14057e-30
1.14052e-30
1.14045e-30
1.14036e-30
1.14023e-30
1.14006e-30
1.13986e-30
1.13963e-30
1.13936e-30
1.13907e-30
1.13878e-30
1.13967e-30
1.13967e-30
1.13967e-30
1.13967e-30
1.13967e-30
1.13966e-30
1.13966e-30
1.13965e-30
1.13964e-30
1.13962e-30
1.13959e-30
1.13955e-30
1.1395e-30
1.13944e-30
1.13935e-30
1.13925e-30
1.13913e-30
1.139e-30
1.13886e-30
1.13871e-30
1.13915e-30
1.13915e-30
1.13915e-30
1.13915e-30
1.13915e-30
1.13915e-30
1.13915e-30
1.13914e-30
1.13914e-30
1.13913e-30
1.13911e-30
1.13909e-30
1.13907e-30
1.13903e-30
1.13899e-30
1.13894e-30
1.13888e-30
1.13882e-30
1.13874e-30
1.13867e-30
1.13889e-30
1.13889e-30
1.13889e-30
1.13889e-30
1.13889e-30
1.13889e-30
1.13889e-30
1.13888e-30
1.13888e-30
1.13888e-30
1.13887e-30
1.13886e-30
1.13885e-30
1.13883e-30
1.13881e-30
1.13878e-30
1.13876e-30
1.13872e-30
1.13869e-30
1.13865e-30
1.13876e-30
1.13876e-30
1.13876e-30
1.13876e-30
1.13876e-30
1.13876e-30
1.13876e-30
1.13876e-30
1.13875e-30
1.13875e-30
1.13875e-30
1.13874e-30
1.13874e-30
1.13873e-30
1.13872e-30
1.13871e-30
1.13869e-30
1.13868e-30
1.13866e-30
1.13865e-30
1.13869e-30
1.13869e-30
1.13869e-30
1.13869e-30
1.13869e-30
1.13869e-30
1.13869e-30
1.13869e-30
1.13869e-30
1.13869e-30
1.13869e-30
1.13869e-30
1.13868e-30
1.13868e-30
1.13868e-30
1.13867e-30
1.13866e-30
1.13866e-30
1.13865e-30
1.13864e-30
1.13866e-30
1.13866e-30
1.13866e-30
1.13866e-30
1.13866e-30
1.13866e-30
1.13866e-30
1.13866e-30
1.13866e-30
1.13866e-30
1.13866e-30
1.13866e-30
1.13866e-30
1.13866e-30
1.13865e-30
1.13865e-30
1.13865e-30
1.13865e-30
1.13864e-30
1.13864e-30
1.13865e-30
1.13865e-30
1.13865e-30
1.13865e-30
1.13865e-30
1.13865e-30
1.13865e-30
1.13865e-30
1.13865e-30
1.13865e-30
1.13865e-30
1.13865e-30
1.13865e-30
1.13865e-30
1.13865e-30
1.13864e-30
1.13864e-30
1.13864e-30
1.13864e-30
1.13864e-30
1.13864e-30
1.13864e-30
1.13864e-30
1.13864e-30
1.13864e-30
1.13864e-30
1.13864e-30
1.13864e-30
1.13864e-30
1.13864e-30
1.13864e-30
1.13864e-30
1.13864e-30
1.13864e-30
1.13864e-30
1.13864e-30
1.13864e-30
1.13864e-30
1.13864e-30
1.13864e-30
1.13864e-30
1.13864e-30
1.13864e-30
1.13864e-30
1.13864e-30
1.13864e-30
1.13864e-30
1.13864e-30
1.13864e-30
1.13864e-30
1.13864e-30
1.13864e-30
1.13864e-30
1.13864e-30
1.13864e-30
1.13864e-30
1.13864e-30
1.13864e-30
1.13864e-30
1.13864e-30
1.13864e-30
1.13864e-30
1.13864e-30
1.13864e-30
1.13864e-30
1.13864e-30
1.13864e-30
1.13864e-30
1.13864e-30
1.13864e-30
1.13864e-30
1.13864e-30
1.13864e-30
1.13864e-30
1.13864e-30
1.13864e-30
1.13864e-30
1.13864e-30
1.13864e-30
1.13864e-30
1.13864e-30
1.13864e-30
1.13864e-30
1.13864e-30
1.13864e-30
1.13864e-30
1.13864e-30
1.13864e-30
1.13864e-30
1.13864e-30
1.13864e-30
1.13864e-30
1.13864e-30
1.13864e-30
1.13864e-30
1.13864e-30
1.13864e-30
1.13864e-30
1.13864e-30
1.13864e-30
1.13864e-30
1.13864e-30
1.13864e-30
1.13864e-30
1.13864e-30
1.13864e-30
1.13864e-30
1.13864e-30
1.13864e-30
1.13864e-30
1.13864e-30
1.13864e-30
1.13864e-30
1.13864e-30
1.13864e-30
1.13864e-30
1.13864e-30
1.13864e-30
1.13864e-30
1.13864e-30
1.13864e-30
1.13864e-30
1.13864e-30
1.13864e-30
1.13864e-30
1.13864e-30
1.13864e-30
1.13864e-30
1.13864e-30
1.13864e-30
1.13864e-30
1.13864e-30
1.13864e-30
1.13864e-30
1.13864e-30
1.13864e-30
1.13864e-30
1.13864e-30
1.13864e-30
1.13864e-30
1.13864e-30
1.13864e-30
1.13864e-30
1.13864e-30
1.13864e-30
1.13864e-30
1.13864e-30
1.13864e-30
1.13864e-30
1.13864e-30
1.13864e-30
1.13864e-30
1.13864e-30
1.13864e-30
1.13864e-30
1.13864e-30
1.13864e-30
1.13864e-30
1.13864e-30
1.13864e-30
1.13864e-30
1.13864e-30
1.13864e-30
1.13864e-30
1.13864e-30
1.13864e-30
1.13864e-30
1.13864e-30
1.13864e-30
1.13864e-30
1.13864e-30
1.13864e-30
1.13864e-30
1.13864e-30
1.13864e-30
1.13864e-30
1.13864e-30
1.13864e-30
1.13864e-30
1.13864e-30
1.13864e-30
1.13864e-30
1.13864e-30
1.13864e-30
1.13864e-30
1.13864e-30
1.13864e-30
1.13864e-30
1.13864e-30
1.13864e-30
1.13864e-30
1.13864e-30
1.13864e-30
1.13864e-30
1.13864e-30
1.13864e-30
1.13864e-30
1.13864e-30
1.13864e-30
1.13864e-30
1.13864e-30
1.13864e-30
1.13864e-30
1.13864e-30
1.13864e-30
1.13864e-30
1.13864e-30
1.13864e-30
1.13864e-30
1.13864e-30
1.13864e-30
1.13864e-30
1.13864e-30
1.13864e-30
1.13864e-30
1.13864e-30
1.13864e-30
1.13864e-30
1.13864e-30
1.13864e-30
1.13864e-30
1.13864e-30
1.13864e-30
1.13864e-30
1.13864e-30
1.13864e-30
1.13864e-30
1.13864e-30
1.13864e-30
1.13864e-30
1.13864e-30
1.13864e-30
1.13864e-30
1.13864e-30
1.13864e-30
1.13864e-30
1.13864e-30
1.13864e-30
1.13864e-30
1.13864e-30
1.13864e-30
1.13864e-30
1.13864e-30
1.13864e-30
1.13864e-30
1.13864e-30
1.13864e-30
1.13864e-30
1.13864e-30
1.13864e-30
1.13864e-30
1.13864e-30
1.13864e-30
1.13864e-30
1.13864e-30
1.13864e-30
1.13864e-30
1.13864e-30
1.13864e-30
1.13864e-30
1.13864e-30
1.13864e-30
1.13864e-30
1.13864e-30
1.13864e-30
1.13864e-30
1.13864e-30
1.13864e-30
1.13864e-30
1.13864e-30
1.13864e-30
1.13864e-30
1.13864e-30
1.13864e-30
1.13864e-30
1.13864e-30
1.13864e-30
1.13864e-30
1.13864e-30
1.13864e-30
1.13864e-30
1.13864e-30
1.13864e-30
1.13864e-30
1.13864e-30
1.13864e-30
1.13864e-30
1.13864e-30
1.13864e-30
1.13864e-30
1.13864e-30
1.13864e-30
1.13864e-30
1.13864e-30
1.13864e-30
1.13864e-30
1.13864e-30
1.13864e-30
1.13864e-30
1.13864e-30
1.13864e-30
1.13864e-30
1.13864e-30
1.13864e-30
1.13864e-30
1.13864e-30
1.13864e-30
1.13864e-30
1.13864e-30
1.13864e-30
1.13864e-30
1.13864e-30
1.13864e-30
1.13864e-30
1.13864e-30
1.13864e-30
1.13864e-30
1.13864e-30
1.13864e-30
1.13864e-30
1.13864e-30
1.13864e-30
1.13864e-30
1.13864e-30
1.13864e-30
1.13864e-30
1.13864e-30
1.13864e-30
1.13864e-30
1.13864e-30
1.13864e-30
1.13864e-30
1.13864e-30
1.13864e-30
1.13864e-30
1.13864e-30
1.13864e-30
1.13864e-30
1.13864e-30
1.13864e-30
1.13864e-30
1.13864e-30
1.13864e-30
1.13864e-30
1.13864e-30
1.13864e-30
1.13864e-30
1.13864e-30
1.13864e-30
1.13864e-30
1.13864e-30
1.13864e-30
1.13864e-30
1.13864e-30
1.13864e-30
1.13864e-30
1.13864e-30
1.13864e-30
1.13864e-30
1.13864e-30
1.13864e-30
1.13864e-30
1.13864e-30
1.13864e-30
1.13864e-30
1.13864e-30
1.13864e-30
1.13864e-30
1.13864e-30
1.13864e-30
1.13864e-30
1.13864e-30
1.13864e-30
1.13864e-30
1.13864e-30
1.13864e-30
1.13864e-30
1.13864e-30
1.13864e-30
1.13864e-30
1.13864e-30
1.13864e-30
1.13864e-30
1.13864e-30
1.13864e-30
1.13864e-30
1.13864e-30
1.13864e-30
1.13864e-30
1.13864e-30
1.13864e-30
1.13864e-30
1.13864e-30
1.13864e-30
1.13864e-30
1.13864e-30
1.13864e-30
1.13864e-30
1.13864e-30
1.13864e-30
1.13864e-30
1.13864e-30
1.13864e-30
1.13864e-30
1.13864e-30
1.13864e-30
1.13864e-30
1.13864e-30
1.13864e-30
1.13864e-30
1.13864e-30
1.13864e-30
1.13864e-30
1.13864e-30
1.13864e-30
1.13864e-30
1.13864e-30
1.13864e-30
1.13864e-30
1.13864e-30
)
;

boundaryField
{
    topWall
    {
        type            zeroGradient;
    }
    bottomWall
    {
        type            zeroGradient;
    }
    sideWallL
    {
        type            symmetry;
    }
    sideWallR
    {
        type            zeroGradient;
    }
    frontAndBack
    {
        type            empty;
    }
}


// ************************************************************************* //
