/*--------------------------------*- C++ -*----------------------------------*\
  =========                 |
  \\      /  F ield         | OpenFOAM: The Open Source CFD Toolbox
   \\    /   O peration     | Website:  https://openfoam.org
    \\  /    A nd           | Version:  7
     \\/     M anipulation  |
\*---------------------------------------------------------------------------*/
FoamFile
{
    version     2.0;
    format      ascii;
    class       volScalarField;
    location    "7";
    object      rhog;
}
// * * * * * * * * * * * * * * * * * * * * * * * * * * * * * * * * * * * * * //

dimensions      [1 -3 0 0 0 0 0];

internalField   nonuniform List<scalar> 
900
(
3.26892e-12
3.26888e-12
3.26879e-12
3.26861e-12
3.26828e-12
3.26768e-12
3.26659e-12
3.26464e-12
3.26116e-12
3.25499e-12
3.2441e-12
3.22486e-12
3.19085e-12
3.1304e-12
3.02171e-12
2.82287e-12
2.4523e-12
1.77032e-12
7.28127e-13
3.74116e-14
2.53291e-13
2.53282e-13
2.53261e-13
2.53219e-13
2.53142e-13
2.53001e-13
2.52748e-13
2.52296e-13
2.51493e-13
2.50078e-13
2.47603e-13
2.43306e-13
2.35913e-13
2.2335e-13
2.02456e-13
1.69135e-13
1.2052e-13
6.21533e-14
1.634e-14
1.2048e-15
3.03974e-14
3.03957e-14
3.03918e-14
3.03841e-14
3.03698e-14
3.03439e-14
3.02973e-14
3.02144e-14
3.00683e-14
2.98131e-14
2.93726e-14
2.86229e-14
2.73707e-14
2.5336e-14
2.21734e-14
1.76118e-14
1.18351e-14
6.00229e-15
1.97558e-15
4.13578e-16
5.69295e-15
5.69258e-15
5.6917e-15
5.68999e-15
5.68683e-15
5.68111e-15
5.67089e-15
5.6528e-15
5.62113e-15
5.56641e-15
5.47328e-15
5.31778e-15
5.06476e-15
4.66791e-15
4.07873e-15
3.27467e-15
2.31088e-15
1.36079e-15
6.51009e-16
2.76122e-16
1.64042e-15
1.64032e-15
1.64007e-15
1.63958e-15
1.63869e-15
1.63709e-15
1.63424e-15
1.62922e-15
1.62051e-15
1.60562e-15
1.5806e-15
1.53952e-15
1.47404e-15
1.37378e-15
1.2287e-15
1.03491e-15
8.03553e-16
5.66379e-16
3.65964e-16
2.29885e-16
6.97208e-16
6.9717e-16
6.97082e-16
6.9691e-16
6.96595e-16
6.96029e-16
6.95027e-16
6.93277e-16
6.90263e-16
6.85162e-16
6.76696e-16
6.6299e-16
6.41478e-16
6.09058e-16
5.62745e-16
5.01119e-16
4.26391e-16
3.45801e-16
2.7022e-16
2.09415e-16
4.04665e-16
4.04649e-16
4.0461e-16
4.04536e-16
4.044e-16
4.04158e-16
4.03731e-16
4.0299e-16
4.01726e-16
3.99608e-16
3.96132e-16
3.90574e-16
3.81962e-16
3.69131e-16
3.50938e-16
3.26698e-16
2.96807e-16
2.63234e-16
2.29389e-16
1.99083e-16
2.91919e-16
2.9191e-16
2.91891e-16
2.91854e-16
2.91786e-16
2.91665e-16
2.91454e-16
2.91091e-16
2.90477e-16
2.89459e-16
2.87807e-16
2.85196e-16
2.81199e-16
2.75306e-16
2.67006e-16
2.55949e-16
2.42166e-16
2.26277e-16
2.09523e-16
1.93507e-16
2.41287e-16
2.41282e-16
2.41271e-16
2.4125e-16
2.41213e-16
2.41146e-16
2.4103e-16
2.40833e-16
2.40503e-16
2.39961e-16
2.39092e-16
2.37736e-16
2.35683e-16
2.3269e-16
2.28509e-16
2.22959e-16
2.16014e-16
2.07898e-16
1.99119e-16
1.90396e-16
2.16128e-16
2.16125e-16
2.16118e-16
2.16106e-16
2.16083e-16
2.16044e-16
2.15976e-16
2.15862e-16
2.15673e-16
2.15365e-16
2.14878e-16
2.14127e-16
2.13005e-16
2.11388e-16
2.09151e-16
2.062e-16
2.02515e-16
1.98189e-16
1.93448e-16
1.88632e-16
2.02813e-16
2.02812e-16
2.02807e-16
2.028e-16
2.02786e-16
2.02762e-16
2.02721e-16
2.02652e-16
2.0254e-16
2.02359e-16
2.02076e-16
2.01646e-16
2.01011e-16
2.00107e-16
1.9887e-16
1.97253e-16
1.95245e-16
1.92889e-16
1.90295e-16
1.87628e-16
1.95509e-16
1.95508e-16
1.95505e-16
1.95501e-16
1.95492e-16
1.95477e-16
1.95452e-16
1.9541e-16
1.95342e-16
1.95234e-16
1.95068e-16
1.94818e-16
1.94453e-16
1.93941e-16
1.93248e-16
1.9235e-16
1.91244e-16
1.89952e-16
1.88529e-16
1.87058e-16
1.91432e-16
1.91431e-16
1.91429e-16
1.91426e-16
1.91421e-16
1.91412e-16
1.91396e-16
1.91371e-16
1.9133e-16
1.91266e-16
1.91168e-16
1.91022e-16
1.90813e-16
1.90522e-16
1.90133e-16
1.89635e-16
1.89026e-16
1.88318e-16
1.87541e-16
1.86736e-16
1.89145e-16
1.89145e-16
1.89144e-16
1.89142e-16
1.89138e-16
1.89133e-16
1.89123e-16
1.89108e-16
1.89084e-16
1.89046e-16
1.88989e-16
1.88905e-16
1.88785e-16
1.88621e-16
1.88405e-16
1.8813e-16
1.87797e-16
1.87413e-16
1.86992e-16
1.86557e-16
1.87868e-16
1.87867e-16
1.87867e-16
1.87866e-16
1.87864e-16
1.8786e-16
1.87855e-16
1.87845e-16
1.87831e-16
1.87809e-16
1.87776e-16
1.87729e-16
1.87662e-16
1.8757e-16
1.87451e-16
1.87302e-16
1.87122e-16
1.86915e-16
1.8669e-16
1.86458e-16
1.87161e-16
1.87161e-16
1.8716e-16
1.8716e-16
1.87158e-16
1.87156e-16
1.87153e-16
1.87148e-16
1.8714e-16
1.87127e-16
1.87109e-16
1.87082e-16
1.87045e-16
1.86995e-16
1.8693e-16
1.8685e-16
1.86754e-16
1.86645e-16
1.86526e-16
1.86404e-16
1.86775e-16
1.86775e-16
1.86775e-16
1.86774e-16
1.86774e-16
1.86772e-16
1.8677e-16
1.86767e-16
1.86763e-16
1.86756e-16
1.86746e-16
1.86731e-16
1.86711e-16
1.86684e-16
1.8665e-16
1.86607e-16
1.86557e-16
1.865e-16
1.86439e-16
1.86375e-16
1.86568e-16
1.86567e-16
1.86567e-16
1.86567e-16
1.86567e-16
1.86566e-16
1.86565e-16
1.86563e-16
1.86561e-16
1.86557e-16
1.86551e-16
1.86544e-16
1.86533e-16
1.86519e-16
1.86501e-16
1.86479e-16
1.86453e-16
1.86424e-16
1.86392e-16
1.8636e-16
1.86458e-16
1.86458e-16
1.86458e-16
1.86458e-16
1.86458e-16
1.86457e-16
1.86457e-16
1.86456e-16
1.86454e-16
1.86452e-16
1.86449e-16
1.86445e-16
1.8644e-16
1.86432e-16
1.86423e-16
1.86412e-16
1.86399e-16
1.86384e-16
1.86368e-16
1.86352e-16
1.86401e-16
1.86401e-16
1.86401e-16
1.86401e-16
1.86401e-16
1.86401e-16
1.864e-16
1.864e-16
1.86399e-16
1.86398e-16
1.86397e-16
1.86395e-16
1.86392e-16
1.86388e-16
1.86383e-16
1.86378e-16
1.86371e-16
1.86364e-16
1.86356e-16
1.86348e-16
1.86372e-16
1.86372e-16
1.86372e-16
1.86372e-16
1.86372e-16
1.86372e-16
1.86372e-16
1.86372e-16
1.86371e-16
1.86371e-16
1.8637e-16
1.86369e-16
1.86367e-16
1.86366e-16
1.86363e-16
1.86361e-16
1.86357e-16
1.86354e-16
1.8635e-16
1.86346e-16
1.86358e-16
1.86358e-16
1.86358e-16
1.86358e-16
1.86358e-16
1.86358e-16
1.86358e-16
1.86357e-16
1.86357e-16
1.86357e-16
1.86357e-16
1.86356e-16
1.86355e-16
1.86354e-16
1.86353e-16
1.86352e-16
1.8635e-16
1.86349e-16
1.86347e-16
1.86345e-16
1.86351e-16
1.86351e-16
1.86351e-16
1.86351e-16
1.86351e-16
1.86351e-16
1.86351e-16
1.8635e-16
1.8635e-16
1.8635e-16
1.8635e-16
1.8635e-16
1.86349e-16
1.86349e-16
1.86349e-16
1.86348e-16
1.86347e-16
1.86346e-16
1.86346e-16
1.86345e-16
1.86347e-16
1.86347e-16
1.86347e-16
1.86347e-16
1.86347e-16
1.86347e-16
1.86347e-16
1.86347e-16
1.86347e-16
1.86347e-16
1.86347e-16
1.86347e-16
1.86347e-16
1.86346e-16
1.86346e-16
1.86346e-16
1.86346e-16
1.86345e-16
1.86345e-16
1.86344e-16
1.86346e-16
1.86346e-16
1.86346e-16
1.86346e-16
1.86346e-16
1.86346e-16
1.86346e-16
1.86346e-16
1.86346e-16
1.86346e-16
1.86345e-16
1.86345e-16
1.86345e-16
1.86345e-16
1.86345e-16
1.86345e-16
1.86345e-16
1.86345e-16
1.86345e-16
1.86344e-16
1.86345e-16
1.86345e-16
1.86345e-16
1.86345e-16
1.86345e-16
1.86345e-16
1.86345e-16
1.86345e-16
1.86345e-16
1.86345e-16
1.86345e-16
1.86345e-16
1.86345e-16
1.86345e-16
1.86345e-16
1.86345e-16
1.86345e-16
1.86344e-16
1.86344e-16
1.86344e-16
1.86345e-16
1.86345e-16
1.86345e-16
1.86345e-16
1.86345e-16
1.86345e-16
1.86345e-16
1.86345e-16
1.86345e-16
1.86344e-16
1.86344e-16
1.86344e-16
1.86344e-16
1.86344e-16
1.86344e-16
1.86344e-16
1.86344e-16
1.86344e-16
1.86344e-16
1.86344e-16
1.86344e-16
1.86344e-16
1.86344e-16
1.86344e-16
1.86344e-16
1.86344e-16
1.86344e-16
1.86344e-16
1.86344e-16
1.86344e-16
1.86344e-16
1.86344e-16
1.86344e-16
1.86344e-16
1.86344e-16
1.86344e-16
1.86344e-16
1.86344e-16
1.86344e-16
1.86344e-16
1.86344e-16
1.86344e-16
1.86344e-16
1.86344e-16
1.86344e-16
1.86344e-16
1.86344e-16
1.86344e-16
1.86344e-16
1.86344e-16
1.86344e-16
1.86344e-16
1.86344e-16
1.86344e-16
1.86344e-16
1.86344e-16
1.86344e-16
1.86344e-16
1.86344e-16
1.86344e-16
1.86344e-16
1.86344e-16
1.86344e-16
1.86344e-16
1.86344e-16
1.86344e-16
1.86344e-16
1.86344e-16
1.86344e-16
1.86344e-16
1.86344e-16
1.86344e-16
1.86344e-16
1.86344e-16
1.86344e-16
1.86344e-16
1.86344e-16
1.86344e-16
1.86344e-16
1.86344e-16
1.86344e-16
1.86344e-16
1.86344e-16
1.86344e-16
1.86344e-16
1.86344e-16
1.86344e-16
1.86344e-16
1.86344e-16
1.86344e-16
1.86344e-16
1.86344e-16
1.86344e-16
1.86344e-16
1.86344e-16
1.86344e-16
1.86344e-16
1.86344e-16
1.86344e-16
1.86344e-16
1.86344e-16
1.86344e-16
1.86344e-16
1.86344e-16
1.86344e-16
1.86344e-16
1.86344e-16
1.86344e-16
1.86344e-16
1.86344e-16
1.86344e-16
1.86344e-16
1.86344e-16
1.86344e-16
1.86344e-16
1.86344e-16
1.86344e-16
1.86344e-16
1.86344e-16
1.86344e-16
1.86344e-16
1.86344e-16
1.86344e-16
1.86344e-16
1.86344e-16
1.86344e-16
1.86344e-16
1.86344e-16
1.86344e-16
1.86344e-16
1.86344e-16
1.86344e-16
1.86344e-16
1.86344e-16
1.86344e-16
1.86344e-16
1.86344e-16
1.86344e-16
1.86344e-16
1.86344e-16
1.86344e-16
1.86344e-16
1.86344e-16
1.86344e-16
1.86344e-16
1.86344e-16
1.86344e-16
1.86344e-16
1.86344e-16
1.86344e-16
1.86344e-16
1.86344e-16
1.86344e-16
1.86344e-16
1.86344e-16
1.86344e-16
1.86344e-16
1.86344e-16
1.86344e-16
1.86344e-16
1.86344e-16
1.86344e-16
1.86344e-16
1.86344e-16
1.86344e-16
1.86344e-16
1.86344e-16
1.86344e-16
1.86344e-16
1.86344e-16
1.86344e-16
1.86344e-16
1.86344e-16
1.86344e-16
1.86344e-16
1.86344e-16
1.86344e-16
1.86344e-16
1.86344e-16
1.86344e-16
1.86344e-16
1.86344e-16
1.86344e-16
1.86344e-16
1.86344e-16
1.86344e-16
1.86344e-16
1.86344e-16
1.86344e-16
1.86344e-16
1.86344e-16
1.86344e-16
1.86344e-16
1.86344e-16
1.86344e-16
1.86344e-16
1.86344e-16
1.86344e-16
1.86344e-16
1.86344e-16
1.86344e-16
1.86344e-16
1.86344e-16
1.86344e-16
1.86344e-16
1.86344e-16
1.86344e-16
1.86344e-16
1.86344e-16
1.86344e-16
1.86344e-16
1.86344e-16
1.86344e-16
1.86344e-16
1.86344e-16
1.86344e-16
1.86344e-16
1.86344e-16
1.86344e-16
1.86344e-16
1.86344e-16
1.86344e-16
1.86344e-16
1.86344e-16
1.86344e-16
1.86344e-16
1.86344e-16
1.86344e-16
1.86344e-16
1.86344e-16
1.86344e-16
1.86344e-16
1.86344e-16
1.86344e-16
1.86344e-16
1.86344e-16
1.86344e-16
1.86344e-16
1.86344e-16
1.86344e-16
1.86344e-16
1.86344e-16
1.86344e-16
1.86344e-16
1.86344e-16
1.86344e-16
1.86344e-16
1.86344e-16
1.86344e-16
1.86344e-16
1.86344e-16
1.86344e-16
1.86344e-16
1.86344e-16
1.86344e-16
1.86344e-16
1.86344e-16
1.86344e-16
1.86344e-16
1.86344e-16
1.86344e-16
1.86344e-16
1.86344e-16
1.86344e-16
1.86344e-16
1.86344e-16
1.86344e-16
1.86344e-16
1.86344e-16
1.86344e-16
1.86344e-16
1.86344e-16
1.86344e-16
1.86344e-16
1.86344e-16
1.86344e-16
1.86344e-16
1.86344e-16
1.86344e-16
1.86344e-16
1.86344e-16
1.86344e-16
1.86344e-16
1.86344e-16
1.86344e-16
1.86344e-16
1.86344e-16
1.86344e-16
1.86344e-16
1.86344e-16
1.86344e-16
1.86344e-16
1.86344e-16
1.86344e-16
1.86344e-16
1.86344e-16
1.86344e-16
1.86344e-16
1.86344e-16
1.86344e-16
1.86344e-16
1.86344e-16
1.86344e-16
1.86344e-16
1.86344e-16
1.86344e-16
1.86344e-16
1.86344e-16
1.86344e-16
1.86344e-16
1.86344e-16
1.86344e-16
1.86344e-16
1.86344e-16
1.86344e-16
1.86344e-16
1.86344e-16
1.86344e-16
1.86344e-16
1.86344e-16
1.86344e-16
1.86344e-16
1.86344e-16
1.86344e-16
1.86344e-16
1.86344e-16
1.86344e-16
1.86344e-16
1.86344e-16
1.86344e-16
1.86344e-16
1.86344e-16
1.86344e-16
1.86344e-16
1.86344e-16
1.86344e-16
1.86344e-16
1.86344e-16
1.86344e-16
1.86344e-16
1.86344e-16
1.86344e-16
1.86344e-16
1.86344e-16
1.86344e-16
1.86344e-16
1.86344e-16
1.86344e-16
1.86344e-16
1.86344e-16
1.86344e-16
1.86344e-16
1.86344e-16
1.86344e-16
1.86344e-16
1.86344e-16
1.86344e-16
1.86344e-16
1.86344e-16
1.86344e-16
1.86344e-16
1.86344e-16
1.86344e-16
1.86344e-16
1.86344e-16
1.86344e-16
1.86344e-16
1.86344e-16
1.86344e-16
1.86344e-16
1.86344e-16
1.86344e-16
1.86344e-16
1.86344e-16
1.86344e-16
1.86344e-16
1.86344e-16
1.86344e-16
1.86344e-16
1.86344e-16
)
;

boundaryField
{
    topWall
    {
        type            calculated;
        value           uniform 0;
    }
    bottomWall
    {
        type            zeroGradient;
    }
    sideWallL
    {
        type            symmetry;
    }
    sideWallR
    {
        type            calculated;
        value           uniform 0;
    }
    frontAndBack
    {
        type            empty;
    }
}


// ************************************************************************* //
