/*--------------------------------*- C++ -*----------------------------------*\
  =========                 |
  \\      /  F ield         | OpenFOAM: The Open Source CFD Toolbox
   \\    /   O peration     | Website:  https://openfoam.org
    \\  /    A nd           | Version:  7
     \\/     M anipulation  |
\*---------------------------------------------------------------------------*/
FoamFile
{
    version     2.0;
    format      ascii;
    class       volScalarField;
    location    "7";
    object      rhois;
}
// * * * * * * * * * * * * * * * * * * * * * * * * * * * * * * * * * * * * * //

dimensions      [1 -3 0 0 0 0 0];

internalField   nonuniform List<scalar> 
900
(
4.02478e-09
4.02475e-09
4.02467e-09
4.02453e-09
4.02426e-09
4.02378e-09
4.02289e-09
4.02129e-09
4.01842e-09
4.0133e-09
4.00417e-09
3.98795e-09
3.95901e-09
3.90699e-09
3.81213e-09
3.63488e-09
3.29246e-09
2.61595e-09
1.39613e-09
1.73947e-10
6.36574e-10
6.36559e-10
6.36525e-10
6.36458e-10
6.36332e-10
6.36103e-10
6.35687e-10
6.34938e-10
6.336e-10
6.31222e-10
6.27025e-10
6.19659e-10
6.06803e-10
5.84526e-10
5.46368e-10
4.82554e-10
3.81543e-10
2.41012e-10
9.58033e-11
1.62601e-11
1.40779e-10
1.40774e-10
1.40763e-10
1.4074e-10
1.40698e-10
1.40622e-10
1.40483e-10
1.40235e-10
1.39795e-10
1.39018e-10
1.37664e-10
1.35328e-10
1.31354e-10
1.24729e-10
1.14019e-10
9.75817e-11
7.45596e-11
4.71289e-11
2.2353e-11
7.81766e-12
4.38436e-11
4.38419e-11
4.38377e-11
4.38296e-11
4.38146e-11
4.37873e-11
4.37382e-11
4.36505e-11
4.3496e-11
4.32264e-11
4.27624e-11
4.19763e-11
4.06718e-11
3.85669e-11
3.53079e-11
3.05677e-11
2.43054e-11
1.71558e-11
1.05454e-11
5.9038e-12
1.89023e-11
1.89016e-11
1.88999e-11
1.88966e-11
1.88904e-11
1.88792e-11
1.88592e-11
1.88238e-11
1.87619e-11
1.8655e-11
1.84735e-11
1.81712e-11
1.768e-11
1.69074e-11
1.57453e-11
1.41034e-11
1.19781e-11
9.53796e-12
7.14097e-12
5.18808e-12
1.07579e-11
1.07576e-11
1.07568e-11
1.07552e-11
1.07523e-11
1.0747e-11
1.07377e-11
1.07213e-11
1.06929e-11
1.06443e-11
1.0563e-11
1.04297e-11
1.02168e-11
9.88866e-12
9.40464e-12
8.7314e-12
7.86398e-12
6.85057e-12
5.80061e-12
4.85436e-12
7.54171e-12
7.54152e-12
7.54109e-12
7.54025e-12
7.5387e-12
7.53594e-12
7.53104e-12
7.52252e-12
7.50788e-12
7.48319e-12
7.44234e-12
7.37635e-12
7.27271e-12
7.11552e-12
6.88719e-12
6.57298e-12
6.16874e-12
5.68979e-12
5.17523e-12
4.68102e-12
6.08007e-12
6.07997e-12
6.07971e-12
6.07922e-12
6.07833e-12
6.07673e-12
6.07394e-12
6.06911e-12
6.06091e-12
6.04723e-12
6.02491e-12
5.98936e-12
5.93438e-12
5.85225e-12
5.73459e-12
5.5743e-12
5.36879e-12
5.12357e-12
4.85447e-12
4.5859e-12
5.34807e-12
5.348e-12
5.34784e-12
5.34754e-12
5.34699e-12
5.34601e-12
5.34432e-12
5.34143e-12
5.33657e-12
5.32856e-12
5.31566e-12
5.29541e-12
5.26457e-12
5.21917e-12
5.15501e-12
5.06858e-12
4.95844e-12
4.82691e-12
4.68107e-12
4.53228e-12
4.95763e-12
4.95759e-12
4.95749e-12
4.95729e-12
4.95695e-12
4.95633e-12
4.95527e-12
4.95349e-12
4.95051e-12
4.94567e-12
4.93798e-12
4.92608e-12
4.90821e-12
4.8823e-12
4.8462e-12
4.79812e-12
4.73739e-12
4.6651e-12
4.58469e-12
4.50169e-12
4.7414e-12
4.74138e-12
4.74131e-12
4.74118e-12
4.74096e-12
4.74057e-12
4.7399e-12
4.73877e-12
4.73693e-12
4.73397e-12
4.72932e-12
4.72224e-12
4.71175e-12
4.69675e-12
4.67615e-12
4.64905e-12
4.61514e-12
4.57503e-12
4.53046e-12
4.48421e-12
4.6193e-12
4.61928e-12
4.61923e-12
4.61915e-12
4.61901e-12
4.61876e-12
4.61833e-12
4.61763e-12
4.61649e-12
4.61468e-12
4.61187e-12
4.60765e-12
4.60149e-12
4.5928e-12
4.58102e-12
4.56572e-12
4.54677e-12
4.52452e-12
4.49987e-12
4.47425e-12
4.54988e-12
4.54987e-12
4.54984e-12
4.54979e-12
4.5497e-12
4.54954e-12
4.54927e-12
4.54884e-12
4.54814e-12
4.54704e-12
4.54536e-12
4.54287e-12
4.53928e-12
4.53428e-12
4.52759e-12
4.519e-12
4.50847e-12
4.49621e-12
4.48268e-12
4.46863e-12
4.5105e-12
4.5105e-12
4.51048e-12
4.51045e-12
4.51039e-12
4.51029e-12
4.51013e-12
4.50986e-12
4.50944e-12
4.50879e-12
4.5078e-12
4.50635e-12
4.50429e-12
4.50145e-12
4.49769e-12
4.49293e-12
4.48714e-12
4.48044e-12
4.4731e-12
4.46549e-12
4.48835e-12
4.48835e-12
4.48834e-12
4.48832e-12
4.48828e-12
4.48822e-12
4.48812e-12
4.48797e-12
4.48772e-12
4.48734e-12
4.48676e-12
4.48594e-12
4.48477e-12
4.48318e-12
4.48111e-12
4.4785e-12
4.47536e-12
4.47176e-12
4.46783e-12
4.46376e-12
4.47604e-12
4.47604e-12
4.47604e-12
4.47602e-12
4.476e-12
4.47597e-12
4.47591e-12
4.47582e-12
4.47567e-12
4.47546e-12
4.47513e-12
4.47467e-12
4.47402e-12
4.47315e-12
4.47203e-12
4.47062e-12
4.46895e-12
4.46704e-12
4.46496e-12
4.46282e-12
4.46931e-12
4.46931e-12
4.4693e-12
4.46929e-12
4.46928e-12
4.46926e-12
4.46923e-12
4.46918e-12
4.4691e-12
4.46897e-12
4.4688e-12
4.46854e-12
4.46819e-12
4.46772e-12
4.46712e-12
4.46638e-12
4.4655e-12
4.4645e-12
4.46342e-12
4.46231e-12
4.46568e-12
4.46568e-12
4.46568e-12
4.46567e-12
4.46567e-12
4.46566e-12
4.46564e-12
4.46561e-12
4.46556e-12
4.4655e-12
4.4654e-12
4.46526e-12
4.46508e-12
4.46483e-12
4.46452e-12
4.46413e-12
4.46368e-12
4.46317e-12
4.46261e-12
4.46205e-12
4.46376e-12
4.46376e-12
4.46376e-12
4.46376e-12
4.46376e-12
4.46375e-12
4.46374e-12
4.46372e-12
4.4637e-12
4.46366e-12
4.46361e-12
4.46354e-12
4.46344e-12
4.46332e-12
4.46316e-12
4.46296e-12
4.46273e-12
4.46247e-12
4.46219e-12
4.46191e-12
4.46277e-12
4.46277e-12
4.46277e-12
4.46277e-12
4.46276e-12
4.46276e-12
4.46276e-12
4.46275e-12
4.46274e-12
4.46272e-12
4.46269e-12
4.46265e-12
4.4626e-12
4.46254e-12
4.46246e-12
4.46236e-12
4.46225e-12
4.46212e-12
4.46198e-12
4.46184e-12
4.46226e-12
4.46226e-12
4.46226e-12
4.46226e-12
4.46226e-12
4.46226e-12
4.46226e-12
4.46225e-12
4.46224e-12
4.46224e-12
4.46222e-12
4.4622e-12
4.46218e-12
4.46215e-12
4.46211e-12
4.46206e-12
4.462e-12
4.46194e-12
4.46187e-12
4.46181e-12
4.46201e-12
4.46201e-12
4.46201e-12
4.46201e-12
4.46201e-12
4.46201e-12
4.46201e-12
4.462e-12
4.462e-12
4.462e-12
4.46199e-12
4.46198e-12
4.46197e-12
4.46195e-12
4.46193e-12
4.46191e-12
4.46188e-12
4.46185e-12
4.46182e-12
4.46179e-12
4.46188e-12
4.46188e-12
4.46188e-12
4.46188e-12
4.46188e-12
4.46188e-12
4.46188e-12
4.46188e-12
4.46188e-12
4.46188e-12
4.46187e-12
4.46187e-12
4.46186e-12
4.46186e-12
4.46185e-12
4.46184e-12
4.46182e-12
4.46181e-12
4.4618e-12
4.46178e-12
4.46182e-12
4.46182e-12
4.46182e-12
4.46182e-12
4.46182e-12
4.46182e-12
4.46182e-12
4.46182e-12
4.46182e-12
4.46182e-12
4.46182e-12
4.46182e-12
4.46182e-12
4.46181e-12
4.46181e-12
4.4618e-12
4.4618e-12
4.46179e-12
4.46178e-12
4.46178e-12
4.4618e-12
4.4618e-12
4.4618e-12
4.4618e-12
4.4618e-12
4.4618e-12
4.4618e-12
4.4618e-12
4.4618e-12
4.4618e-12
4.46179e-12
4.46179e-12
4.46179e-12
4.46179e-12
4.46179e-12
4.46179e-12
4.46178e-12
4.46178e-12
4.46178e-12
4.46177e-12
4.46178e-12
4.46178e-12
4.46178e-12
4.46178e-12
4.46178e-12
4.46178e-12
4.46178e-12
4.46178e-12
4.46178e-12
4.46178e-12
4.46178e-12
4.46178e-12
4.46178e-12
4.46178e-12
4.46178e-12
4.46178e-12
4.46178e-12
4.46178e-12
4.46178e-12
4.46177e-12
4.46178e-12
4.46178e-12
4.46178e-12
4.46178e-12
4.46178e-12
4.46178e-12
4.46178e-12
4.46178e-12
4.46178e-12
4.46178e-12
4.46178e-12
4.46178e-12
4.46178e-12
4.46178e-12
4.46178e-12
4.46178e-12
4.46178e-12
4.46177e-12
4.46177e-12
4.46177e-12
4.46178e-12
4.46178e-12
4.46178e-12
4.46178e-12
4.46178e-12
4.46178e-12
4.46178e-12
4.46178e-12
4.46178e-12
4.46178e-12
4.46177e-12
4.46177e-12
4.46177e-12
4.46177e-12
4.46177e-12
4.46177e-12
4.46177e-12
4.46177e-12
4.46177e-12
4.46177e-12
4.46177e-12
4.46177e-12
4.46177e-12
4.46177e-12
4.46177e-12
4.46177e-12
4.46177e-12
4.46177e-12
4.46177e-12
4.46177e-12
4.46177e-12
4.46177e-12
4.46177e-12
4.46177e-12
4.46177e-12
4.46177e-12
4.46177e-12
4.46177e-12
4.46177e-12
4.46177e-12
4.46177e-12
4.46177e-12
4.46177e-12
4.46177e-12
4.46177e-12
4.46177e-12
4.46177e-12
4.46177e-12
4.46177e-12
4.46177e-12
4.46177e-12
4.46177e-12
4.46177e-12
4.46177e-12
4.46177e-12
4.46177e-12
4.46177e-12
4.46177e-12
4.46177e-12
4.46177e-12
4.46177e-12
4.46177e-12
4.46177e-12
4.46177e-12
4.46177e-12
4.46177e-12
4.46177e-12
4.46177e-12
4.46177e-12
4.46177e-12
4.46177e-12
4.46177e-12
4.46177e-12
4.46177e-12
4.46177e-12
4.46177e-12
4.46177e-12
4.46177e-12
4.46177e-12
4.46177e-12
4.46177e-12
4.46177e-12
4.46177e-12
4.46177e-12
4.46177e-12
4.46177e-12
4.46177e-12
4.46177e-12
4.46177e-12
4.46177e-12
4.46177e-12
4.46177e-12
4.46177e-12
4.46177e-12
4.46177e-12
4.46177e-12
4.46177e-12
4.46177e-12
4.46177e-12
4.46177e-12
4.46177e-12
4.46177e-12
4.46177e-12
4.46177e-12
4.46177e-12
4.46177e-12
4.46177e-12
4.46177e-12
4.46177e-12
4.46177e-12
4.46177e-12
4.46177e-12
4.46177e-12
4.46177e-12
4.46177e-12
4.46177e-12
4.46177e-12
4.46177e-12
4.46177e-12
4.46177e-12
4.46177e-12
4.46177e-12
4.46177e-12
4.46177e-12
4.46177e-12
4.46177e-12
4.46177e-12
4.46177e-12
4.46177e-12
4.46177e-12
4.46177e-12
4.46177e-12
4.46177e-12
4.46177e-12
4.46177e-12
4.46177e-12
4.46177e-12
4.46177e-12
4.46177e-12
4.46177e-12
4.46177e-12
4.46177e-12
4.46177e-12
4.46177e-12
4.46177e-12
4.46177e-12
4.46177e-12
4.46177e-12
4.46177e-12
4.46177e-12
4.46177e-12
4.46177e-12
4.46177e-12
4.46177e-12
4.46177e-12
4.46177e-12
4.46177e-12
4.46177e-12
4.46177e-12
4.46177e-12
4.46177e-12
4.46177e-12
4.46177e-12
4.46177e-12
4.46177e-12
4.46177e-12
4.46177e-12
4.46177e-12
4.46177e-12
4.46177e-12
4.46177e-12
4.46177e-12
4.46177e-12
4.46177e-12
4.46177e-12
4.46177e-12
4.46177e-12
4.46177e-12
4.46177e-12
4.46177e-12
4.46177e-12
4.46177e-12
4.46177e-12
4.46177e-12
4.46177e-12
4.46177e-12
4.46177e-12
4.46177e-12
4.46177e-12
4.46177e-12
4.46177e-12
4.46177e-12
4.46177e-12
4.46177e-12
4.46177e-12
4.46177e-12
4.46177e-12
4.46177e-12
4.46177e-12
4.46177e-12
4.46177e-12
4.46177e-12
4.46177e-12
4.46177e-12
4.46177e-12
4.46177e-12
4.46177e-12
4.46177e-12
4.46177e-12
4.46177e-12
4.46177e-12
4.46177e-12
4.46177e-12
4.46177e-12
4.46177e-12
4.46177e-12
4.46177e-12
4.46177e-12
4.46177e-12
4.46177e-12
4.46177e-12
4.46177e-12
4.46177e-12
4.46177e-12
4.46177e-12
4.46177e-12
4.46177e-12
4.46177e-12
4.46177e-12
4.46177e-12
4.46177e-12
4.46177e-12
4.46177e-12
4.46177e-12
4.46177e-12
4.46177e-12
4.46177e-12
4.46177e-12
4.46177e-12
4.46177e-12
4.46177e-12
4.46177e-12
4.46177e-12
4.46177e-12
4.46177e-12
4.46177e-12
4.46177e-12
4.46177e-12
4.46177e-12
4.46177e-12
4.46177e-12
4.46177e-12
4.46177e-12
4.46177e-12
4.46177e-12
4.46177e-12
4.46177e-12
4.46177e-12
4.46177e-12
4.46177e-12
4.46177e-12
4.46177e-12
4.46177e-12
4.46177e-12
4.46177e-12
4.46177e-12
4.46177e-12
4.46177e-12
4.46177e-12
4.46177e-12
4.46177e-12
4.46177e-12
4.46177e-12
4.46177e-12
4.46177e-12
4.46177e-12
4.46177e-12
4.46177e-12
4.46177e-12
4.46177e-12
4.46177e-12
4.46177e-12
4.46177e-12
4.46177e-12
4.46177e-12
4.46177e-12
4.46177e-12
4.46177e-12
4.46177e-12
4.46177e-12
4.46177e-12
4.46177e-12
4.46177e-12
4.46177e-12
4.46177e-12
4.46177e-12
4.46177e-12
4.46177e-12
4.46177e-12
4.46177e-12
4.46177e-12
4.46177e-12
4.46177e-12
4.46177e-12
4.46177e-12
4.46177e-12
4.46177e-12
4.46177e-12
4.46177e-12
4.46177e-12
4.46177e-12
4.46177e-12
4.46177e-12
4.46177e-12
4.46177e-12
4.46177e-12
4.46177e-12
4.46177e-12
4.46177e-12
4.46177e-12
4.46177e-12
4.46177e-12
4.46177e-12
4.46177e-12
4.46177e-12
4.46177e-12
4.46177e-12
4.46177e-12
4.46177e-12
4.46177e-12
4.46177e-12
4.46177e-12
4.46177e-12
4.46177e-12
4.46177e-12
4.46177e-12
4.46177e-12
4.46177e-12
4.46177e-12
4.46177e-12
4.46177e-12
4.46177e-12
4.46177e-12
4.46177e-12
4.46177e-12
4.46177e-12
4.46177e-12
4.46177e-12
4.46177e-12
4.46177e-12
4.46177e-12
4.46177e-12
4.46177e-12
4.46177e-12
4.46177e-12
4.46177e-12
4.46177e-12
4.46177e-12
4.46177e-12
4.46177e-12
)
;

boundaryField
{
    topWall
    {
        type            zeroGradient;
    }
    bottomWall
    {
        type            zeroGradient;
    }
    sideWallL
    {
        type            symmetry;
    }
    sideWallR
    {
        type            zeroGradient;
    }
    frontAndBack
    {
        type            empty;
    }
}


// ************************************************************************* //
