/*--------------------------------*- C++ -*----------------------------------*\
  =========                 |
  \\      /  F ield         | OpenFOAM: The Open Source CFD Toolbox
   \\    /   O peration     | Website:  https://openfoam.org
    \\  /    A nd           | Version:  7
     \\/     M anipulation  |
\*---------------------------------------------------------------------------*/
FoamFile
{
    version     2.0;
    format      ascii;
    class       volScalarField;
    location    "7";
    object      T;
}
// * * * * * * * * * * * * * * * * * * * * * * * * * * * * * * * * * * * * * //

dimensions      [0 0 0 1 0 0 0];

internalField   nonuniform List<scalar> 
900
(
333.384
333.384
333.384
333.384
333.383
333.381
333.378
333.373
333.365
333.35
333.325
333.281
333.204
333.069
332.824
332.362
331.424
329.296
323.656
305.799
318.15
318.15
318.149
318.147
318.145
318.14
318.133
318.119
318.095
318.054
317.984
317.863
317.654
317.293
316.659
315.522
313.424
309.416
301.532
286.106
306.252
306.251
306.25
306.248
306.244
306.237
306.226
306.205
306.17
306.109
306.007
305.833
305.54
305.046
304.211
302.797
300.398
296.349
289.678
279.455
297.102
297.101
297.1
297.097
297.093
297.084
297.07
297.045
297.003
296.933
296.814
296.617
296.292
295.76
294.898
293.515
291.334
287.987
283.104
276.612
290.18
290.18
290.178
290.176
290.17
290.162
290.146
290.12
290.077
290.004
289.884
289.689
289.374
288.876
288.099
286.913
285.151
282.639
279.269
275.16
285.036
285.035
285.034
285.031
285.026
285.017
285.002
284.978
284.936
284.868
284.758
284.582
284.306
283.88
283.241
282.304
280.98
279.196
276.94
274.333
281.281
281.281
281.279
281.277
281.272
281.264
281.251
281.229
281.192
281.133
281.039
280.892
280.666
280.327
279.834
279.136
278.19
276.967
275.485
273.832
278.594
278.593
278.592
278.59
278.586
278.579
278.568
278.549
278.519
278.47
278.394
278.278
278.103
277.848
277.486
276.99
276.337
275.522
274.564
273.521
276.707
276.707
276.706
276.704
276.701
276.695
276.686
276.671
276.647
276.61
276.552
276.464
276.336
276.152
275.896
275.556
275.119
274.588
273.978
273.324
275.41
275.409
275.409
275.407
275.405
275.4
275.393
275.382
275.364
275.336
275.294
275.231
275.14
275.012
274.839
274.612
274.327
273.988
273.605
273.2
274.536
274.536
274.535
274.534
274.532
274.529
274.524
274.515
274.502
274.483
274.453
274.409
274.347
274.261
274.147
274
273.819
273.607
273.37
273.122
273.96
273.959
273.959
273.958
273.957
273.954
273.951
273.945
273.936
273.922
273.902
273.873
273.832
273.776
273.703
273.61
273.497
273.367
273.223
273.073
273.588
273.587
273.587
273.587
273.586
273.584
273.582
273.578
273.572
273.562
273.549
273.53
273.504
273.469
273.423
273.366
273.297
273.218
273.133
273.044
273.353
273.352
273.352
273.352
273.351
273.35
273.349
273.346
273.342
273.336
273.328
273.316
273.299
273.278
273.25
273.215
273.174
273.128
273.077
273.025
273.207
273.207
273.207
273.207
273.206
273.206
273.205
273.203
273.201
273.197
273.192
273.184
273.174
273.161
273.145
273.124
273.101
273.074
273.044
273.015
273.119
273.119
273.119
273.119
273.119
273.118
273.118
273.117
273.115
273.113
273.11
273.106
273.1
273.092
273.082
273.071
273.057
273.042
273.025
273.008
273.067
273.067
273.067
273.067
273.067
273.067
273.066
273.066
273.065
273.064
273.062
273.059
273.056
273.051
273.046
273.039
273.032
273.023
273.014
273.005
273.037
273.037
273.037
273.037
273.037
273.037
273.037
273.036
273.036
273.035
273.034
273.033
273.031
273.028
273.025
273.021
273.017
273.013
273.008
273.002
273.02
273.02
273.02
273.02
273.02
273.02
273.02
273.02
273.019
273.019
273.018
273.018
273.016
273.015
273.013
273.012
273.009
273.007
273.004
273.001
273.011
273.011
273.011
273.011
273.011
273.011
273.011
273.01
273.01
273.01
273.01
273.009
273.009
273.008
273.007
273.006
273.005
273.004
273.002
273.001
273.006
273.006
273.006
273.006
273.006
273.006
273.005
273.005
273.005
273.005
273.005
273.005
273.005
273.004
273.004
273.003
273.002
273.002
273.001
273
273.003
273.003
273.003
273.003
273.003
273.003
273.003
273.003
273.003
273.003
273.003
273.002
273.002
273.002
273.002
273.002
273.001
273.001
273.001
273
273.001
273.001
273.001
273.001
273.001
273.001
273.001
273.001
273.001
273.001
273.001
273.001
273.001
273.001
273.001
273.001
273.001
273
273
273
273.001
273.001
273.001
273.001
273.001
273.001
273.001
273.001
273.001
273.001
273.001
273.001
273.001
273.001
273
273
273
273
273
273
273
273
273
273
273
273
273
273
273
273
273
273
273
273
273
273
273
273
273
273
273
273
273
273
273
273
273
273
273
273
273
273
273
273
273
273
273
273
273
273
273
273
273
273
273
273
273
273
273
273
273
273
273
273
273
273
273
273
273
273
273
273
273
273
273
273
273
273
273
273
273
273
273
273
273
273
273
273
273
273
273
273
273
273
273
273
273
273
273
273
273
273
273
273
273
273
273
273
273
273
273
273
273
273
273
273
273
273
273
273
273
273
273
273
273
273
273
273
273
273
273
273
273
273
273
273
273
273
273
273
273
273
273
273
273
273
273
273
273
273
273
273
273
273
273
273
273
273
273
273
273
273
273
273
273
273
273
273
273
273
273
273
273
273
273
273
273
273
273
273
273
273
273
273
273
273
273
273
273
273
273
273
273
273
273
273
273
273
273
273
273
273
273
273
273
273
273
273
273
273
273
273
273
273
273
273
273
273
273
273
273
273
273
273
273
273
273
273
273
273
273
273
273
273
273
273
273
273
273
273
273
273
273
273
273
273
273
273
273
273
273
273
273
273
273
273
273
273
273
273
273
273
273
273
273
273
273
273
273
273
273
273
273
273
273
273
273
273
273
273
273
273
273
273
273
273
273
273
273
273
273
273
273
273
273
273
273
273
273
273
273
273
273
273
273
273
273
273
273
273
273
273
273
273
273
273
273
273
273
273
273
273
273
273
273
273
273
273
273
273
273
273
273
273
273
273
273
273
273
273
273
273
273
273
273
273
273
273
273
273
273
273
273
273
273
273
273
273
273
273
273
273
273
273
273
273
273
273
273
273
273
273
273
273
273
273
273
273
273
273
273
273
273
273
273
273
273
273
273
273
273
273
273
273
273
273
273
273
273
273
273
273
273
273
273
273
273
273
273
273
273
273
273
273
273
273
273
273
273
273
273
273
273
273
273
273
273
273
273
273
)
;

boundaryField
{
    topWall
    {
        type            zeroGradient;
    }
    bottomWall
    {
        type            codedFixedValue;
        value           uniform 343;
        name            heating;
        code            #{
            const scalar t = this->db().time().value();
            const scalar Ttemp = 273 + 10*t;
            operator==(Ttemp);
        #};
    }
    sideWallL
    {
        type            symmetry;
    }
    sideWallR
    {
        type            fixedValue;
        value           uniform 273;
    }
    frontAndBack
    {
        type            empty;
    }
}


// ************************************************************************* //
