/*--------------------------------*- C++ -*----------------------------------*\
  =========                 |
  \\      /  F ield         | OpenFOAM: The Open Source CFD Toolbox
   \\    /   O peration     | Website:  https://openfoam.org
    \\  /    A nd           | Version:  7
     \\/     M anipulation  |
\*---------------------------------------------------------------------------*/
FoamFile
{
    version     2.0;
    format      ascii;
    class       volScalarField;
    location    "19";
    object      gradTy;
}
// * * * * * * * * * * * * * * * * * * * * * * * * * * * * * * * * * * * * * //

dimensions      [0 -1 0 1 0 0 0];

internalField   nonuniform List<scalar> 
900
(
-154143
-154206
-154337
-154549
-154862
-155308
-155931
-156797
-157999
-159675
-162032
-165383
-170226
-177378
-188263
-205531
-234547
-287337
-394024
-638262
-132235
-132292
-132411
-132603
-132886
-133288
-133845
-134614
-135672
-137129
-139147
-141955
-145896
-151472
-159420
-170746
-186486
-206040
-219145
-171085
-113029
-113077
-113178
-113340
-113577
-113910
-114367
-114987
-115823
-116948
-118452
-120456
-123097
-126512
-130742
-135472
-139306
-137924
-119988
-61460.5
-96204.8
-96242.4
-96320.6
-96445.2
-96625.3
-96873.9
-97208.2
-97649.9
-98225.3
-98963.4
-99891.7
-101024
-102333
-103691
-104742
-104643
-101573
-91963.7
-69831.3
-28490.9
-81496.5
-81522.5
-81575.8
-81659.6
-81778.2
-81937.1
-82142.4
-82399.5
-82710.6
-83070
-83453.9
-83803.7
-83992.9
-83769.7
-82659.4
-79811.6
-73806.1
-62534
-43564.4
-15915.1
-68676.5
-68690.7
-68719.3
-68762.8
-68821.1
-68893.4
-68976.5
-69062.8
-69136.5
-69167.7
-69101.4
-68841.3
-68222.8
-66973.3
-64657.9
-60619.5
-53952.2
-43604.6
-28803.4
-9992.71
-57545.6
-57549
-57554.9
-57561.6
-57565.9
-57561.7
-57539.3
-57482.2
-57363.5
-57139.8
-56743
-56066.4
-54948
-53149
-50331.9
-46053.7
-39801.5
-31120.1
-19888.8
-6728.49
-47927.1
-47921.2
-47907.8
-47883.6
-47843
-47777
-47671.3
-47504.9
-47245.5
-46845.9
-46236.6
-45318.3
-43951.9
-41950.8
-39077.8
-35059.5
-29631.6
-22634.7
-14164.4
-4728.25
-39660.9
-39647.6
-39619.1
-39571.1
-39496.6
-39384.8
-39220
-38979.1
-38629.7
-38126
-37405.4
-36383.6
-34951.2
-32972.7
-30292.3
-26752.6
-22231.2
-16701.7
-10307.1
-3413.82
-32600.5
-32582
-32542.7
-32478.1
-32380.7
-32239.3
-32037.9
-31754.3
-31358.4
-30809.7
-30055.6
-29029.1
-27649
-25822.1
-23451.3
-20451.8
-16776.8
-12452.4
-7611.46
-2508.48
-26610.3
-26588.5
-26542.7
-26468.4
-26358.1
-26201.2
-25982.7
-25682.8
-25274.9
-24725.5
-23992.4
-23025.1
-21765.6
-20152.5
-18128.2
-15650.7
-12710.7
-9349.95
-5676.14
-1864.35
-21564.6
-21541.3
-21492.6
-21414.4
-21299.7
-21138.9
-20918.9
-20622.4
-20227.8
-19707.8
-19030.3
-18158.2
-17051.9
-15672.2
-13986.5
-11977.1
-9651.37
-7051.17
-4259.07
-1395.52
-17346.5
-17323.1
-17274.6
-17197
-17084.5
-16928.6
-16718.3
-16439.3
-16074.3
-15602.1
-14998.9
-14238.4
-13294.1
-12141.8
-10764.5
-9157.2
-7333.35
-5329.37
-3206.78
-1048.83
-13848
-13825.7
-13779.4
-13706
-13600.3
-13455.4
-13262.2
-13009.4
-12683.3
-12268.1
-11746.5
-11100.3
-10312.2
-9368.01
-8259.56
-6988.29
-5568.56
-4029.97
-2417.71
-789.648
-10970
-10949.4
-10906.9
-10839.9
-10744
-10613.8
-10441.9
-10219.6
-9936.4
-9580.79
-9140.38
-8602.86
-7957.25
-7195.55
-6314.72
-5318.87
-4221.11
-3044.6
-1822.25
-594.509
-8622.08
-8603.71
-8565.89
-8506.43
-8422.02
-8308.19
-8159.31
-7968.66
-7728.53
-7430.53
-7066.05
-6626.9
-6106.32
-5500.07
-4807.85
-4034.51
-3191.13
-2295.43
-1371.24
-446.969
-6722.97
-6706.99
-6674.18
-6622.8
-6550.26
-6453.12
-6327.08
-6167.12
-5967.61
-5722.59
-5426.14
-5072.94
-4658.95
-4182.18
-3643.6
-3047.92
-2404.08
-1725.4
-1029.11
-335.203
-5200.11
-5186.53
-5158.69
-5115.28
-5054.29
-4973.11
-4868.54
-4736.87
-4574.07
-4375.95
-4138.53
-3858.41
-3533.26
-3162.39
-2747.26
-2292
-1803.62
-1292.02
-769.621
-250.529
-3989.62
-3978.31
-3955.17
-3919.21
-3868.92
-3802.34
-3717.13
-3610.59
-3479.87
-3322.09
-3134.58
-2915.24
-2662.79
-2377.21
-2060.07
-1714.78
-1346.72
-963.198
-573.126
-186.469
-3035.9
-3026.65
-3007.78
-2978.52
-2937.77
-2884.09
-2815.78
-2730.92
-2627.5
-2503.56
-2357.38
-2187.64
-1993.73
-1775.96
-1535.75
-1275.84
-1000.3
-714.474
-424.736
-138.129
-2291.15
-2283.72
-2268.58
-2245.17
-2212.68
-2170.08
-2116.13
-2049.5
-1968.79
-1872.69
-1760.08
-1630.19
-1482.76
-1318.23
-1137.83
-943.664
-738.788
-527.079
-313.087
-101.781
-1714.78
-1708.91
-1696.94
-1678.5
-1652.98
-1619.66
-1577.65
-1526.04
-1463.85
-1390.23
-1304.47
-1206.12
-1095.13
-971.95
-837.575
-693.629
-542.355
-386.552
-229.457
-74.5694
-1272.72
-1268.14
-1258.83
-1244.5
-1224.74
-1199.03
-1166.75
-1127.27
-1079.94
-1024.18
-959.569
-885.859
-803.102
-711.693
-612.428
-506.525
-395.623
-281.729
-167.136
-54.3005
-936.711
-933.189
-926.041
-915.064
-899.965
-880.378
-855.886
-826.047
-790.435
-748.677
-700.506
-645.808
-584.672
-517.433
-444.705
-367.392
-286.678
-203.994
-120.957
-39.2878
-683.618
-680.946
-675.53
-667.227
-655.834
-641.097
-622.733
-600.442
-573.943
-542.999
-507.451
-467.251
-422.5
-373.468
-320.62
-264.616
-206.307
-146.707
-86.9503
-28.2359
-494.7
-492.699
-488.645
-482.442
-473.949
-462.992
-449.38
-432.912
-413.406
-390.711
-364.736
-335.471
-303.009
-267.561
-229.473
-189.224
-147.419
-104.77
-62.0703
-20.1525
-354.959
-353.478
-350.481
-345.902
-339.643
-331.59
-321.611
-309.576
-295.367
-278.889
-260.093
-238.986
-215.648
-190.241
-163.016
-134.319
-104.575
-74.2826
-43.9928
-14.2808
-252.53
-251.447
-249.257
-245.914
-241.354
-235.499
-228.263
-219.56
-209.314
-197.468
-183.996
-168.913
-152.283
-134.227
-114.929
-94.6305
-73.6318
-52.2791
-30.9519
-10.046
-178.13
-177.346
-175.763
-173.35
-170.065
-165.854
-160.661
-154.432
-147.117
-138.683
-129.118
-118.437
-106.691
-93.9699
-80.4029
-66.1611
-51.4529
-36.517
-21.614
-7.01424
-124.578
-124.017
-122.886
-121.163
-118.82
-115.823
-112.135
-107.721
-102.55
-96.6024
-89.8738
-82.3788
-74.1556
-65.2688
-55.8102
-45.8989
-35.6784
-25.3123
-14.9783
-4.86023
-86.3806
-85.984
-85.1837
-83.9664
-82.3133
-80.2023
-77.6095
-74.5122
-70.8919
-66.7373
-62.0476
-56.8352
-51.1284
-44.9732
-38.4339
-31.5925
-24.5473
-17.4096
-10.2997
-3.34171
-59.3827
-59.1049
-58.5448
-57.6936
-56.5391
-55.067
-53.262
-51.1099
-48.5994
-45.7242
-42.4853
-38.8926
-34.9667
-30.7399
-26.2566
-21.573
-16.7557
-11.8801
-7.02697
-2.27967
-40.473
-40.2805
-39.8924
-39.3032
-38.505
-37.4886
-36.2443
-34.7632
-33.0387
-31.0673
-28.8506
-26.3962
-23.7189
-20.8411
-17.7932
-14.6132
-11.3462
-8.0425
-4.7562
-1.54286
-27.3482
-27.2161
-26.9499
-26.5461
-25.9997
-25.3047
-24.4552
-23.4456
-22.2719
-20.9326
-19.4292
-17.7673
-15.9574
-14.0147
-11.96
-9.81887
-7.62131
-5.4009
-3.19348
-1.03585
-18.3207
-18.2309
-18.0502
-17.7762
-17.4057
-16.9351
-16.3606
-15.6789
-14.8876
-13.9859
-12.9754
-11.86
-10.647
-9.3469
-7.97345
-6.54377
-5.07777
-3.59761
-2.1269
-0.68984
-12.1673
-12.107
-11.9854
-11.8013
-11.5526
-11.2369
-10.8521
-10.396
-9.86736
-9.26586
-8.59269
-7.85073
-7.0449
-6.18222
-5.27192
-4.32529
-3.35543
-2.37685
-1.405
-0.45567
-8.01058
-7.97036
-7.88944
-7.7669
-7.6015
-7.39183
-7.13645
-6.83417
-6.48425
-6.08663
-5.64221
-5.153
-4.62232
-4.05485
-3.45668
-2.83519
-2.19893
-1.55735
-0.920468
-0.298508
-5.22738
-5.20085
-5.14749
-5.06673
-4.95781
-4.81985
-4.652
-4.45353
-4.22406
-3.96363
-3.67289
-3.35323
-3.00685
-2.63685
-2.24719
-1.84267
-1.42884
-1.01178
-0.597944
-0.193903
-3.37974
-3.36242
-3.32759
-3.2749
-3.20388
-3.11401
-3.00476
-2.87573
-2.7267
-2.55775
-2.36934
-2.16242
-1.93843
-1.69939
-1.44786
-1.18695
-0.920203
-0.651508
-0.38499
-0.12484
-2.1627
-2.15152
-2.12903
-2.09504
-2.04924
-1.99134
-1.92101
-1.83802
-1.74226
-1.63382
-1.51301
-1.38045
-1.2371
-1.08425
-0.923541
-0.756951
-0.586731
-0.415351
-0.245417
-0.0795776
-1.36571
-1.35858
-1.34427
-1.32264
-1.29353
-1.25673
-1.21208
-1.15943
-1.09874
-1.03007
-0.953642
-0.869855
-0.77932
-0.68286
-0.581516
-0.476528
-0.369308
-0.261404
-0.154442
-0.0500765
-0.84423
-0.839796
-0.830888
-0.81743
-0.799322
-0.776453
-0.748719
-0.716044
-0.678406
-0.635854
-0.588531
-0.536693
-0.480722
-0.42113
-0.358559
-0.293773
-0.227641
-0.161111
-0.0951806
-0.0308605
-0.499095
-0.496459
-0.491162
-0.483163
-0.472404
-0.458823
-0.442362
-0.422982
-0.400671
-0.375465
-0.347451
-0.316784
-0.283693
-0.24848
-0.211527
-0.173283
-0.134259
-0.0950121
-0.0561274
-0.0181978
-0.261351
-0.259964
-0.257179
-0.252974
-0.247319
-0.240184
-0.23154
-0.221366
-0.209661
-0.196442
-0.181759
-0.165692
-0.148363
-0.129931
-0.110595
-0.0905897
-0.0701826
-0.0496634
-0.0293369
-0.00951149
-0.0810987
-0.0806674
-0.0798012
-0.0784935
-0.0767355
-0.0745176
-0.0718311
-0.0686702
-0.0650342
-0.0609292
-0.0563704
-0.0513836
-0.0460061
-0.0402876
-0.0342899
-0.0280858
-0.0217579
-0.0153961
-0.00909446
-0.00294854
)
;

boundaryField
{
    topWall
    {
        type            calculated;
        value           uniform 0;
    }
    bottomWall
    {
        type            calculated;
        value           nonuniform List<scalar> 
20
(
-165817
-165881
-166017
-166235
-166559
-167021
-167666
-168565
-169816
-171566
-174036
-177568
-182712
-190402
-202337
-221930
-256995
-328511
-502923
-1.02008e+06
)
;
    }
    sideWallL
    {
        type            symmetry;
    }
    sideWallR
    {
        type            calculated;
        value           nonuniform List<scalar> 
45
(
-638262
-171085
-61460.5
-28490.9
-15915.1
-9992.71
-6728.49
-4728.25
-3413.82
-2508.48
-1864.35
-1395.52
-1048.83
-789.648
-594.509
-446.969
-335.203
-250.529
-186.469
-138.129
-101.781
-74.5694
-54.3005
-39.2878
-28.2359
-20.1525
-14.2808
-10.046
-7.01424
-4.86023
-3.34171
-2.27967
-1.54286
-1.03585
-0.68984
-0.45567
-0.298508
-0.193903
-0.12484
-0.0795776
-0.0500765
-0.0308605
-0.0181978
-0.00951149
-0.00294854
)
;
    }
    frontAndBack
    {
        type            empty;
    }
}


// ************************************************************************* //
