/*--------------------------------*- C++ -*----------------------------------*\
  =========                 |
  \\      /  F ield         | OpenFOAM: The Open Source CFD Toolbox
   \\    /   O peration     | Website:  https://openfoam.org
    \\  /    A nd           | Version:  7
     \\/     M anipulation  |
\*---------------------------------------------------------------------------*/
FoamFile
{
    version     2.0;
    format      ascii;
    class       volScalarField;
    location    "19";
    object      gradTx;
}
// * * * * * * * * * * * * * * * * * * * * * * * * * * * * * * * * * * * * * //

dimensions      [0 -1 0 1 0 0 0];

internalField   nonuniform List<scalar> 
900
(
-16.1166
-49.8945
-88.4788
-135.674
-196.288
-276.764
-386.123
-537.441
-750.299
-1055.02
-1500.41
-2168.92
-3208.42
-4906.21
-7882.21
-13664.6
-26645.2
-61482
-172893
-569248
-46.3648
-143.493
-254.295
-389.556
-562.838
-792.199
-1102.73
-1530.44
-2128.61
-2978.36
-4207.45
-6024.59
-8786.12
-13131.3
-20270.7
-32619
-55161.6
-97994.8
-178031
-298466
-72.987
-225.75
-399.585
-611.003
-880.568
-1235.35
-1712.42
-2364.07
-3265.92
-4529.97
-6326.02
-8917.82
-12725.2
-18430.5
-27156.6
-40731.1
-61938.5
-94140.9
-137939
-179018
-94.6853
-292.614
-517.053
-788.573
-1132.47
-1581.5
-2179.6
-2987.29
-4089.51
-5607.34
-7715.7
-10669.7
-14842.5
-20775.8
-29230
-41182.7
-57613.9
-78677
-101568
-117018
-110.654
-341.602
-602.336
-915.696
-1309.32
-1818.27
-2488.43
-3381.14
-4579.4
-6196.38
-8386.52
-11359.1
-15392.4
-20839.8
-28108.4
-37562.2
-49259.1
-62398.7
-74465.8
-80696
-120.63
-371.945
-654.242
-990.956
-1409.93
-1945.64
-2641.96
-3555.55
-4760
-6350.64
-8449.48
-11208.6
-14808.5
-19442.3
-25271.9
-32329.5
-40336.3
-48435.3
-54949
-57538.2
-124.855
-384.461
-674.461
-1017.51
-1439.96
-1973.65
-2657.8
-3541.17
-4684.29
-6161.22
-8060.12
-10480.6
-13524.5
-17274.9
-21754.6
-26856.5
-32244.2
-37250
-40853.9
-41899.8
-123.976
-381.221
-666.91
-1001.91
-1410.01
-1919.1
-2562.43
-3379.67
-4417.65
-5730.16
-7375.98
-9413.71
-11891.1
-14826.1
-18176.6
-21799.1
-25402.7
-28522.6
-30557.4
-30920.9
-118.908
-365.112
-636.908
-952.778
-1333.31
-1801.97
-2385.73
-3115.38
-4025.32
-5152.29
-6532.46
-8195.85
-10157
-12400.8
-14863.4
-17410.3
-19819.4
-21782.8
-22947.5
-23007.2
-110.691
-339.395
-590.361
-879.411
-1223.78
-1642.51
-2156.71
-2789.33
-3564.5
-4505.85
-5633.56
-6959.52
-8480.21
-10167.3
-11956.6
-13738
-15351.8
-16598.5
-17269.5
-17200
-100.37
-307.315
-533.066
-790.779
-1094.46
-1459.13
-1900.77
-2435.9
-3080.74
-3849.5
-4751.88
-5789.3
-6949.97
-8203.09
-9493.05
-10735.8
-11820
-12617.4
-13003.5
-12887.2
-88.8994
-271.822
-470.224
-694.772
-956.566
-1267.14
-1638.28
-2081.52
-2607.26
-3223.36
-3933.15
-4732.7
-5607.65
-6529.87
-7454.76
-8320.51
-9051.04
-9563.92
-9783.88
-9659.48
-77.0844
-235.387
-406.143
-597.804
-818.975
-1078.32
-1384.33
-1744.8
-2166.09
-2652.02
-3202.33
-3810.93
-4463.89
-5137.65
-5798.02
-6400.68
-6894.07
-7225.15
-7347.87
-7232.63
-65.5545
-199.93
-344.119
-504.685
-688.17
-900.959
-1149.02
-1437.49
-1770.03
-2148.01
-2569.45
-3027.84
-3511.02
-4000.28
-4470.17
-4889.4
-5223.21
-5437.35
-5503.33
-5403.88
-54.7603
-166.814
-286.457
-418.697
-568.419
-740.246
-938.298
-1165.85
-1424.84
-1715.28
-2034.54
-2376.64
-2731.56
-3084.97
-3418.29
-3709.68
-3935.75
-4074.3
-4107.54
-4025.28
-44.9895
-136.9
-234.579
-341.787
-462.115
-598.855
-754.8
-931.968
-1131.25
-1351.99
-1591.52
-1844.72
-2103.71
-2357.75
-2593.49
-2795.79
-2948.94
-3038.49
-3053.24
-2987.12
-36.3922
-110.625
-189.177
-274.826
-370.175
-477.536
-598.767
-735.065
-886.716
-1052.8
-1230.91
-1416.9
-1604.73
-1786.5
-1952.73
-2092.96
-2196.66
-2254.41
-2259.09
-2207.07
-29.0105
-88.103
-150.382
-217.872
-292.437
-375.675
-468.804
-572.499
-686.72
-810.521
-941.873
-1077.52
-1212.94
-1342.41
-1459.24
-1556.26
-1626.42
-1663.51
-1663.04
-1622.81
-22.8085
-69.2072
-117.925
-170.421
-228.009
-291.785
-362.529
-440.596
-525.796
-617.268
-713.375
-811.634
-908.709
-1000.5
-1082.34
-1149.31
-1196.69
-1220.41
-1217.59
-1186.92
-17.6981
-53.6574
-91.2839
-131.615
-175.569
-223.885
-277.056
-335.246
-398.215
-465.232
-535.021
-605.723
-674.916
-739.691
-796.806
-842.911
-874.838
-889.922
-886.311
-863.216
-13.5612
-41.0844
-69.7922
-100.414
-133.583
-169.795
-209.353
-252.315
-298.442
-347.143
-397.448
-447.989
-497.028
-542.518
-582.222
-613.862
-635.321
-644.847
-641.25
-624.056
-10.2667
-31.0822
-52.7299
-75.7171
-100.477
-127.337
-156.479
-187.907
-221.406
-256.517
-292.515
-328.408
-362.963
-394.751
-422.235
-443.874
-458.253
-464.221
-461.014
-448.348
-7.68271
-23.2446
-39.3849
-56.453
-74.7423
-94.4659
-115.731
-138.515
-162.64
-187.755
-213.33
-238.655
-262.861
-284.96
-303.9
-318.642
-328.244
-331.95
-329.267
-320.029
-5.68476
-17.1897
-29.0927
-41.6318
-55.0038
-69.3462
-84.7201
-101.093
-118.323
-136.15
-154.19
-171.941
-188.797
-204.077
-217.067
-227.069
-233.457
-235.734
-233.585
-226.911
-4.16071
-12.5745
-21.2596
-30.3767
-40.0564
-50.3865
-61.4002
-73.0643
-85.2701
-97.827
-110.461
-122.821
-134.486
-144.993
-153.859
-160.614
-164.846
-166.229
-164.561
-159.784
-3.01304
-9.10159
-15.3732
-21.9355
-28.8743
-36.2451
-44.0647
-52.3036
-60.8802
-69.6575
-78.4424
-86.9901
-95.0135
-102.197
-108.215
-112.757
-115.548
-116.377
-115.114
-111.725
-2.15939
-6.52002
-11.0031
-15.6799
-20.6065
-25.8174
-31.3203
-37.0907
-43.0689
-49.1573
-55.2215
-61.093
-66.5762
-71.4581
-75.5215
-78.5595
-80.392
-80.8811
-79.9437
-77.561
-1.53194
-4.6236
-7.79642
-11.0973
-14.5623
-18.2129
-22.0516
-26.0593
-30.1928
-34.3839
-38.5395
-42.5449
-46.2678
-49.5655
-52.2933
-54.3148
-55.512
-55.7953
-55.1119
-53.4513
-1.07601
-3.24632
-5.46996
-7.77748
-10.192
-12.7265
-15.3811
-18.1414
-20.9766
-23.8395
-26.6664
-29.3797
-31.8907
-34.1042
-35.9248
-37.2625
-38.0407
-38.2012
-37.7106
-36.5631
-0.748398
-2.25712
-3.80058
-5.39852
-7.06561
-8.80958
-10.6296
-12.515
-14.4442
-16.3847
-18.2936
-20.1186
-21.8007
-23.277
-24.4846
-25.3649
-25.8679
-25.9564
-25.6091
-24.823
-0.515524
-1.55429
-2.61549
-3.71178
-4.85237
-6.04183
-7.27897
-8.55606
-9.85824
-11.1634
-12.4428
-13.6616
-14.7807
-15.7588
-16.5549
-17.1307
-17.4541
-17.5011
-17.2585
-16.7246
-0.351741
-1.06017
-1.78298
-2.52819
-3.30155
-4.1057
-4.93949
-5.7974
-6.66931
-7.54037
-8.39138
-9.19939
-9.93875
-10.5825
-11.1039
-11.4783
-11.685
-11.7088
-11.5412
-11.1817
-0.237741
-0.716372
-1.20414
-1.70609
-2.22578
-2.76471
-3.32187
-3.89344
-4.47257
-5.04937
-5.61118
-6.14294
-6.62794
-7.04869
-7.38794
-7.62988
-7.76125
-7.77237
-7.65802
-7.41791
-0.159198
-0.47958
-0.805719
-1.14077
-1.48691
-1.84496
-2.21413
-2.59178
-2.97335
-3.35231
-3.72037
-4.06774
-4.38361
-4.6567
-4.87597
-5.0313
-5.11428
-5.1188
-5.0416
-4.88261
-0.105624
-0.318117
-0.534207
-0.755852
-0.984365
-1.22019
-1.46274
-1.71021
-1.95959
-2.20661
-2.44589
-2.67112
-2.87534
-3.05135
-3.1921
-3.29118
-3.34327
-3.34454
-3.29297
-3.18858
-0.0694427
-0.2091
-0.350989
-0.496311
-0.645854
-0.799852
-0.957864
-1.1187
-1.28037
-1.44012
-1.59449
-1.73942
-1.87049
-1.98311
-2.07284
-2.13562
-2.16812
-2.16793
-2.13384
-2.06587
-0.0452457
-0.136213
-0.228552
-0.322996
-0.420014
-0.51972
-0.621803
-0.725474
-0.829447
-0.931948
-1.03076
-1.12332
-1.20682
-1.27837
-1.33517
-1.37469
-1.39483
-1.39412
-1.37179
-1.32791
-0.0292213
-0.0879547
-0.147525
-0.208376
-0.270784
-0.3348
-0.400208
-0.466494
-0.53283
-0.598086
-0.66086
-0.719531
-0.772337
-0.817467
-0.853171
-0.877874
-0.890279
-0.889474
-0.874997
-0.846892
-0.0187143
-0.0563192
-0.0944311
-0.133316
-0.173134
-0.213907
-0.255487
-0.297541
-0.339542
-0.380777
-0.420362
-0.457284
-0.490441
-0.518709
-0.541002
-0.556344
-0.563937
-0.56322
-0.553917
-0.536059
-0.0118971
-0.0357976
-0.060003
-0.0846715
-0.109896
-0.135682
-0.161931
-0.18843
-0.214846
-0.240729
-0.265529
-0.288616
-0.309306
-0.326904
-0.340739
-0.350212
-0.354833
-0.354261
-0.348329
-0.337061
-0.00752802
-0.0226477
-0.0379499
-0.0535281
-0.0694356
-0.0856715
-0.102171
-0.118797
-0.13534
-0.151521
-0.166997
-0.181375
-0.194236
-0.20515
-0.213705
-0.219533
-0.222337
-0.221907
-0.218143
-0.211064
-0.00477548
-0.0143646
-0.0240631
-0.0339263
-0.0439845
-0.0542345
-0.0646332
-0.0750936
-0.0854835
-0.0956275
-0.105312
-0.114294
-0.122312
-0.1291
-0.134406
-0.138004
-0.139709
-0.139395
-0.137002
-0.132543
-0.00309412
-0.0093057
-0.015584
-0.0219623
-0.0284582
-0.0350677
-0.041762
-0.0484843
-0.0551496
-0.0616455
-0.067836
-0.0735669
-0.078673
-0.0829867
-0.0863483
-0.0886159
-0.0896747
-0.0894459
-0.0878923
-0.0850228
-0.0021387
-0.00643133
-0.0107674
-0.0151682
-0.0196446
-0.0241927
-0.0287918
-0.0334026
-0.0379665
-0.042407
-0.0466315
-0.0505356
-0.0540075
-0.0569345
-0.059209
-0.0607358
-0.0614382
-0.0612636
-0.0601878
-0.0582174
-0.00170741
-0.00513389
-0.00859353
-0.0121025
-0.0156686
-0.0192882
-0.0229444
-0.0266057
-0.0302255
-0.0337432
-0.0370859
-0.0401713
-0.0429116
-0.0452182
-0.0470071
-0.0482038
-0.0487485
-0.0486002
-0.0477403
-0.0461744
)
;

boundaryField
{
    topWall
    {
        type            calculated;
        value           nonuniform List<scalar> 
20
(
-0.00170741
-0.00513389
-0.00859353
-0.0121025
-0.0156686
-0.0192882
-0.0229444
-0.0266057
-0.0302255
-0.0337432
-0.0370859
-0.0401713
-0.0429116
-0.0452182
-0.0470071
-0.0482038
-0.0487485
-0.0486002
-0.0477403
-0.0461744
)
;
    }
    bottomWall
    {
        type            calculated;
        value           nonuniform List<scalar> 
20
(
-16.1166
-49.8945
-88.4788
-135.674
-196.288
-276.764
-386.123
-537.441
-750.299
-1055.02
-1500.41
-2168.92
-3208.42
-4906.21
-7882.21
-13664.6
-26645.2
-61482
-172893
-569248
)
;
    }
    sideWallL
    {
        type            symmetry;
    }
    sideWallR
    {
        type            calculated;
        value           nonuniform List<scalar> 
45
(
-879916
-367036
-195577
-121194
-81613
-57533.4
-41642.1
-30619.5
-22729.2
-16964.2
-12695.2
-9506.8
-7113.15
-5311.5
-3954.56
-2933.46
-2166.68
-1592.65
-1164.56
-846.771
-612.049
-439.647
-313.772
-222.445
-156.62
-109.501
-76.0102
-52.3781
-35.8263
-24.3211
-16.3854
-10.9543
-7.2667
-4.78286
-3.12331
-2.0235
-1.30063
-0.829469
-0.525016
-0.330109
-0.206705
-0.129802
-0.0832632
-0.0570114
-0.0452172
)
;
    }
    frontAndBack
    {
        type            empty;
    }
}


// ************************************************************************* //
