/*--------------------------------*- C++ -*----------------------------------*\
  =========                 |
  \\      /  F ield         | OpenFOAM: The Open Source CFD Toolbox
   \\    /   O peration     | Website:  https://openfoam.org
    \\  /    A nd           | Version:  7
     \\/     M anipulation  |
\*---------------------------------------------------------------------------*/
FoamFile
{
    version     2.0;
    format      ascii;
    class       volScalarField;
    location    "19";
    object      rhoc;
}
// * * * * * * * * * * * * * * * * * * * * * * * * * * * * * * * * * * * * * //

dimensions      [1 -3 0 0 0 0 0];

internalField   nonuniform List<scalar> 
900
(
5.73012e-13
5.725e-13
5.71426e-13
5.69683e-13
5.67097e-13
5.63407e-13
5.5824e-13
5.51068e-13
5.41152e-13
5.27459e-13
5.08557e-13
4.82472e-13
4.46538e-13
3.97304e-13
3.30782e-13
2.43924e-13
1.40132e-13
4.38809e-14
2.19704e-15
6.69982e-20
4.4658e-15
4.45279e-15
4.42558e-15
4.38169e-15
4.31719e-15
4.22645e-15
4.10183e-15
3.93345e-15
3.70916e-15
3.41509e-15
3.0376e-15
2.56762e-15
2.00933e-15
1.39389e-15
7.94367e-16
3.22648e-16
7.0166e-17
4.37098e-18
1.77035e-20
1.3017e-25
4.21499e-17
4.19339e-17
4.14839e-17
4.07637e-17
3.97172e-17
3.82685e-17
3.6323e-17
3.37737e-17
3.05169e-17
2.64845e-17
2.16988e-17
1.63529e-17
1.08912e-17
6.01544e-18
2.48241e-18
6.41156e-19
7.5987e-20
2.37869e-21
7.67639e-24
9.34993e-28
5.13311e-19
5.09552e-19
5.0176e-19
4.89386e-19
4.71622e-19
4.47444e-19
4.15717e-19
3.75417e-19
3.26034e-19
2.6819e-19
2.04432e-19
1.39873e-19
8.19437e-20
3.82975e-20
1.28227e-20
2.60898e-21
2.51525e-22
8.06465e-24
5.81279e-26
1.17577e-28
8.52825e-21
8.44907e-21
8.28566e-21
8.02821e-21
7.66291e-21
7.17365e-21
6.54533e-21
5.76959e-21
4.85344e-21
3.83019e-21
2.76871e-21
1.77282e-21
9.59156e-22
4.10296e-22
1.26466e-22
2.47504e-23
2.6171e-24
1.26163e-25
2.64102e-27
4.22677e-29
2.02274e-22
2.00087e-22
1.95592e-22
1.88561e-22
1.78684e-22
1.65639e-22
1.49188e-22
1.29339e-22
1.06563e-22
8.20063e-23
5.75834e-23
3.57528e-23
1.88233e-23
7.95425e-24
2.51612e-24
5.48445e-25
7.5788e-26
6.364e-27
3.64751e-28
2.3856e-29
7.0797e-24
6.99648e-24
6.82601e-24
6.56081e-24
6.19134e-24
5.70846e-24
5.10755e-24
4.39417e-24
3.5909e-24
2.74286e-24
1.91776e-24
1.19489e-24
6.41517e-25
2.84974e-25
1.00051e-25
2.65536e-26
5.18901e-27
7.69822e-28
1.01805e-28
1.68619e-29
3.73227e-25
3.68735e-25
3.59556e-25
3.45334e-25
3.25628e-25
3.0005e-25
2.68475e-25
2.31316e-25
1.89833e-25
1.46348e-25
1.04171e-25
6.7042e-26
3.80695e-26
1.85738e-26
7.59311e-27
2.56032e-27
7.18482e-28
1.78008e-28
4.45271e-29
1.35078e-29
2.99061e-26
2.9558e-26
2.88477e-26
2.77497e-26
2.62326e-26
2.42698e-26
2.18536e-26
1.9015e-26
1.58441e-26
1.25034e-26
9.22303e-27
6.26502e-27
3.8576e-27
2.12184e-27
1.03271e-27
4.45779e-28
1.74809e-28
6.58328e-29
2.5935e-29
1.1664e-29
3.64331e-27
3.60464e-27
3.52577e-27
3.40392e-27
3.23567e-27
3.01792e-27
2.74945e-27
2.43276e-27
2.0761e-27
1.69494e-27
1.3118e-27
9.53387e-28
6.45035e-28
4.03862e-28
2.33979e-28
1.26672e-28
6.56202e-29
3.3801e-29
1.81378e-29
1.05602e-29
6.69697e-28
6.63616e-28
6.5121e-28
6.32033e-28
6.05513e-28
5.71097e-28
5.28453e-28
4.7773e-28
4.19851e-28
3.56746e-28
2.91406e-28
2.2762e-28
1.69357e-28
1.19897e-28
8.10502e-29
5.28319e-29
3.37728e-29
2.16561e-29
1.42707e-29
9.86142e-30
1.81951e-28
1.80629e-28
1.77931e-28
1.73754e-28
1.67962e-28
1.60414e-28
1.50998e-28
1.3968e-28
1.26567e-28
1.11953e-28
9.63468e-29
8.04573e-29
6.51043e-29
5.10818e-29
3.90025e-29
2.91836e-29
2.16226e-29
1.60653e-29
1.21262e-29
9.40238e-30
7.00197e-29
6.96368e-29
6.88543e-29
6.76409e-29
6.59538e-29
6.37447e-29
6.09694e-29
5.75994e-29
5.36367e-29
4.91292e-29
4.41809e-29
3.89549e-29
3.36615e-29
2.85323e-29
2.37841e-29
1.9584e-29
1.6026e-29
1.31274e-29
1.08439e-29
9.09313e-30
3.57773e-29
3.56361e-29
3.53475e-29
3.48992e-29
3.42744e-29
3.34532e-29
3.24154e-29
3.11443e-29
2.96314e-29
2.78817e-29
2.5918e-29
2.37839e-29
2.15427e-29
1.92727e-29
1.70576e-29
1.49757e-29
1.30891e-29
1.14375e-29
1.00366e-29
8.88128e-30
2.25818e-29
2.25189e-29
2.23902e-29
2.21902e-29
2.1911e-29
2.15431e-29
2.10762e-29
2.05008e-29
1.981e-29
1.90013e-29
1.80791e-29
1.70559e-29
1.59533e-29
1.48009e-29
1.3634e-29
1.24898e-29
1.14033e-29
1.04034e-29
9.51023e-30
8.73454e-30
1.65248e-29
1.64925e-29
1.64264e-29
1.63237e-29
1.61802e-29
1.59909e-29
1.575e-29
1.54522e-29
1.50925e-29
1.46682e-29
1.41791e-29
1.36288e-29
1.30253e-29
1.2381e-29
1.17118e-29
1.10364e-29
1.03742e-29
9.7432e-30
9.15877e-30
8.63221e-30
1.33675e-29
1.33491e-29
1.33116e-29
1.32532e-29
1.31716e-29
1.3064e-29
1.2927e-29
1.27573e-29
1.25518e-29
1.23082e-29
1.20257e-29
1.17049e-29
1.13492e-29
1.0964e-29
1.05571e-29
1.01385e-29
9.71883e-30
9.30935e-30
8.92036e-30
8.5606e-30
1.15665e-29
1.15553e-29
1.15324e-29
1.14967e-29
1.1447e-29
1.13814e-29
1.1298e-29
1.11947e-29
1.10694e-29
1.09206e-29
1.07474e-29
1.05498e-29
1.03291e-29
1.0088e-29
9.83061e-30
9.56231e-30
9.2894e-30
9.01871e-30
8.75699e-30
8.5104e-30
1.04726e-29
1.04654e-29
1.04507e-29
1.04278e-29
1.0396e-29
1.03542e-29
1.03009e-29
1.02351e-29
1.01552e-29
1.00604e-29
9.94986e-30
9.82346e-30
9.68176e-30
9.52616e-30
9.35892e-30
9.18315e-30
9.00262e-30
8.82158e-30
8.64438e-30
8.47524e-30
9.77877e-30
9.77399e-30
9.76424e-30
9.74913e-30
9.72812e-30
9.7005e-30
9.66547e-30
9.62218e-30
9.56981e-30
9.50765e-30
9.4352e-30
9.35232e-30
9.25925e-30
9.15678e-30
9.04622e-30
8.92945e-30
8.80877e-30
8.68686e-30
8.56655e-30
8.45065e-30
9.32566e-30
9.32243e-30
9.31583e-30
9.30563e-30
9.29145e-30
9.27287e-30
9.24935e-30
9.22035e-30
9.18533e-30
9.14385e-30
9.09556e-30
9.04034e-30
8.97834e-30
8.91002e-30
8.83616e-30
8.75794e-30
8.6768e-30
8.59445e-30
8.51273e-30
8.43351e-30
9.02404e-30
9.02182e-30
9.0173e-30
9.01032e-30
9.00065e-30
8.98799e-30
8.97201e-30
8.95236e-30
8.92869e-30
8.9007e-30
8.86819e-30
8.83108e-30
8.78943e-30
8.74355e-30
8.69394e-30
8.64133e-30
8.58665e-30
8.53099e-30
8.47556e-30
8.4216e-30
8.82086e-30
8.81933e-30
8.81622e-30
8.81141e-30
8.80477e-30
8.79609e-30
8.78517e-30
8.77177e-30
8.75568e-30
8.7367e-30
8.71471e-30
8.68965e-30
8.66158e-30
8.63068e-30
8.59728e-30
8.56186e-30
8.52501e-30
8.48745e-30
8.44996e-30
8.41336e-30
8.6831e-30
8.68204e-30
8.67989e-30
8.67658e-30
8.672e-30
8.66605e-30
8.65857e-30
8.64942e-30
8.63846e-30
8.62558e-30
8.61068e-30
8.59374e-30
8.5748e-30
8.55399e-30
8.53153e-30
8.50771e-30
8.48293e-30
8.45765e-30
8.4324e-30
8.4077e-30
8.58944e-30
8.58871e-30
8.58723e-30
8.58495e-30
8.5818e-30
8.57772e-30
8.5726e-30
8.56637e-30
8.55891e-30
8.55017e-30
8.54009e-30
8.52867e-30
8.51592e-30
8.50193e-30
8.48685e-30
8.47088e-30
8.45427e-30
8.43733e-30
8.4204e-30
8.40382e-30
8.52578e-30
8.52528e-30
8.52426e-30
8.5227e-30
8.52054e-30
8.51775e-30
8.51427e-30
8.51003e-30
8.50497e-30
8.49906e-30
8.49227e-30
8.48458e-30
8.47603e-30
8.46666e-30
8.45658e-30
8.44592e-30
8.43484e-30
8.42354e-30
8.41224e-30
8.40117e-30
8.48261e-30
8.48227e-30
8.48157e-30
8.4805e-30
8.47904e-30
8.47714e-30
8.47478e-30
8.47191e-30
8.4685e-30
8.46452e-30
8.45997e-30
8.45482e-30
8.44911e-30
8.44286e-30
8.43616e-30
8.42907e-30
8.42172e-30
8.41422e-30
8.40673e-30
8.39939e-30
8.45345e-30
8.45322e-30
8.45275e-30
8.45202e-30
8.45103e-30
8.44975e-30
8.44815e-30
8.44622e-30
8.44394e-30
8.44128e-30
8.43824e-30
8.43481e-30
8.43102e-30
8.42688e-30
8.42244e-30
8.41776e-30
8.41291e-30
8.40797e-30
8.40303e-30
8.39819e-30
8.43385e-30
8.43369e-30
8.43337e-30
8.43289e-30
8.43222e-30
8.43136e-30
8.43029e-30
8.429e-30
8.42748e-30
8.42571e-30
8.4237e-30
8.42143e-30
8.41893e-30
8.4162e-30
8.41328e-30
8.41021e-30
8.40703e-30
8.40379e-30
8.40056e-30
8.39739e-30
8.42075e-30
8.42065e-30
8.42043e-30
8.42011e-30
8.41966e-30
8.41909e-30
8.41838e-30
8.41753e-30
8.41652e-30
8.41535e-30
8.41403e-30
8.41254e-30
8.4109e-30
8.40911e-30
8.40721e-30
8.4052e-30
8.40313e-30
8.40102e-30
8.39892e-30
8.39685e-30
8.41206e-30
8.41199e-30
8.41185e-30
8.41163e-30
8.41134e-30
8.41096e-30
8.41049e-30
8.40993e-30
8.40927e-30
8.4085e-30
8.40764e-30
8.40666e-30
8.4056e-30
8.40444e-30
8.4032e-30
8.4019e-30
8.40056e-30
8.3992e-30
8.39784e-30
8.3965e-30
8.40632e-30
8.40628e-30
8.40619e-30
8.40604e-30
8.40585e-30
8.4056e-30
8.4053e-30
8.40493e-30
8.4045e-30
8.404e-30
8.40344e-30
8.40281e-30
8.40212e-30
8.40137e-30
8.40057e-30
8.39974e-30
8.39888e-30
8.398e-30
8.39713e-30
8.39627e-30
8.40257e-30
8.40254e-30
8.40248e-30
8.40239e-30
8.40226e-30
8.4021e-30
8.4019e-30
8.40167e-30
8.40139e-30
8.40107e-30
8.4007e-30
8.4003e-30
8.39986e-30
8.39938e-30
8.39887e-30
8.39833e-30
8.39778e-30
8.39723e-30
8.39667e-30
8.39612e-30
8.40013e-30
8.40011e-30
8.40007e-30
8.40001e-30
8.39993e-30
8.39983e-30
8.3997e-30
8.39955e-30
8.39937e-30
8.39917e-30
8.39893e-30
8.39868e-30
8.39839e-30
8.39809e-30
8.39777e-30
8.39743e-30
8.39708e-30
8.39672e-30
8.39637e-30
8.39603e-30
8.39856e-30
8.39855e-30
8.39852e-30
8.39848e-30
8.39843e-30
8.39837e-30
8.39828e-30
8.39819e-30
8.39807e-30
8.39794e-30
8.3978e-30
8.39763e-30
8.39745e-30
8.39726e-30
8.39706e-30
8.39685e-30
8.39663e-30
8.3964e-30
8.39618e-30
8.39597e-30
8.39755e-30
8.39755e-30
8.39753e-30
8.39751e-30
8.39747e-30
8.39743e-30
8.39738e-30
8.39732e-30
8.39725e-30
8.39716e-30
8.39707e-30
8.39697e-30
8.39686e-30
8.39674e-30
8.39661e-30
8.39648e-30
8.39634e-30
8.3962e-30
8.39606e-30
8.39593e-30
8.39691e-30
8.39691e-30
8.3969e-30
8.39688e-30
8.39686e-30
8.39684e-30
8.3968e-30
8.39677e-30
8.39672e-30
8.39667e-30
8.39661e-30
8.39655e-30
8.39648e-30
8.3964e-30
8.39633e-30
8.39624e-30
8.39616e-30
8.39607e-30
8.39599e-30
8.3959e-30
8.39651e-30
8.39651e-30
8.3965e-30
8.39649e-30
8.39648e-30
8.39646e-30
8.39644e-30
8.39642e-30
8.39639e-30
8.39636e-30
8.39632e-30
8.39629e-30
8.39624e-30
8.3962e-30
8.39615e-30
8.3961e-30
8.39604e-30
8.39599e-30
8.39594e-30
8.39589e-30
8.39626e-30
8.39626e-30
8.39626e-30
8.39625e-30
8.39624e-30
8.39623e-30
8.39622e-30
8.3962e-30
8.39619e-30
8.39617e-30
8.39615e-30
8.39612e-30
8.39609e-30
8.39607e-30
8.39604e-30
8.39601e-30
8.39597e-30
8.39594e-30
8.39591e-30
8.39588e-30
8.39611e-30
8.3961e-30
8.3961e-30
8.3961e-30
8.39609e-30
8.39609e-30
8.39608e-30
8.39607e-30
8.39606e-30
8.39605e-30
8.39603e-30
8.39602e-30
8.396e-30
8.39599e-30
8.39597e-30
8.39595e-30
8.39593e-30
8.39591e-30
8.39589e-30
8.39587e-30
8.39601e-30
8.39601e-30
8.39601e-30
8.39601e-30
8.396e-30
8.396e-30
8.39599e-30
8.39599e-30
8.39598e-30
8.39598e-30
8.39597e-30
8.39596e-30
8.39595e-30
8.39594e-30
8.39593e-30
8.39592e-30
8.3959e-30
8.39589e-30
8.39588e-30
8.39587e-30
8.39595e-30
8.39595e-30
8.39595e-30
8.39595e-30
8.39595e-30
8.39595e-30
8.39594e-30
8.39594e-30
8.39594e-30
8.39593e-30
8.39593e-30
8.39592e-30
8.39591e-30
8.39591e-30
8.3959e-30
8.39589e-30
8.39589e-30
8.39588e-30
8.39587e-30
8.39587e-30
8.39592e-30
8.39592e-30
8.39592e-30
8.39592e-30
8.39592e-30
8.39591e-30
8.39591e-30
8.39591e-30
8.39591e-30
8.39591e-30
8.3959e-30
8.3959e-30
8.3959e-30
8.39589e-30
8.39589e-30
8.39588e-30
8.39588e-30
8.39587e-30
8.39587e-30
8.39587e-30
8.3959e-30
8.3959e-30
8.3959e-30
8.3959e-30
8.3959e-30
8.3959e-30
8.3959e-30
8.39589e-30
8.39589e-30
8.39589e-30
8.39589e-30
8.39589e-30
8.39588e-30
8.39588e-30
8.39588e-30
8.39588e-30
8.39587e-30
8.39587e-30
8.39587e-30
8.39586e-30
8.39589e-30
8.39589e-30
8.39589e-30
8.39589e-30
8.39589e-30
8.39589e-30
8.39589e-30
8.39589e-30
8.39589e-30
8.39588e-30
8.39588e-30
8.39588e-30
8.39588e-30
8.39588e-30
8.39588e-30
8.39587e-30
8.39587e-30
8.39587e-30
8.39587e-30
8.39586e-30
)
;

boundaryField
{
    topWall
    {
        type            zeroGradient;
    }
    bottomWall
    {
        type            zeroGradient;
    }
    sideWallL
    {
        type            symmetry;
    }
    sideWallR
    {
        type            zeroGradient;
    }
    frontAndBack
    {
        type            empty;
    }
}


// ************************************************************************* //
