/*--------------------------------*- C++ -*----------------------------------*\
  =========                 |
  \\      /  F ield         | OpenFOAM: The Open Source CFD Toolbox
   \\    /   O peration     | Website:  https://openfoam.org
    \\  /    A nd           | Version:  7
     \\/     M anipulation  |
\*---------------------------------------------------------------------------*/
FoamFile
{
    version     2.0;
    format      ascii;
    class       volScalarField;
    location    "19";
    object      rhog;
}
// * * * * * * * * * * * * * * * * * * * * * * * * * * * * * * * * * * * * * //

dimensions      [1 -3 0 0 0 0 0];

internalField   nonuniform List<scalar> 
900
(
6.47025e-06
6.46683e-06
6.45965e-06
6.44799e-06
6.43067e-06
6.40593e-06
6.37121e-06
6.32284e-06
6.25561e-06
6.16204e-06
6.03135e-06
5.84782e-06
5.58837e-06
5.21869e-06
4.68782e-06
3.92252e-06
2.83623e-06
1.43752e-06
2.48294e-07
5.32533e-10
3.8329e-07
3.82625e-07
3.81232e-07
3.78979e-07
3.75654e-07
3.70947e-07
3.6442e-07
3.55482e-07
3.43341e-07
3.26976e-07
3.05117e-07
2.76302e-07
2.39104e-07
1.92739e-07
1.38378e-07
8.13695e-08
3.30873e-08
6.41536e-09
2.43797e-10
2.01516e-13
2.5026e-08
2.49492e-08
2.47887e-08
2.45305e-08
2.41524e-08
2.36227e-08
2.28992e-08
2.19279e-08
2.06441e-08
1.89763e-08
1.6858e-08
1.42529e-08
1.11996e-08
7.87647e-09
4.65998e-09
2.08709e-09
5.87711e-10
7.45863e-11
2.39643e-12
9.88408e-15
1.87324e-09
1.86497e-09
1.84777e-09
1.82026e-09
1.78029e-09
1.72497e-09
1.6506e-09
1.55286e-09
1.42726e-09
1.27005e-09
1.08003e-09
8.61192e-10
6.26042e-10
3.97741e-10
2.07071e-10
8.00183e-11
1.97411e-11
2.50156e-12
1.26451e-13
2.72009e-15
1.66496e-10
1.6556e-10
1.63617e-10
1.60528e-10
1.56079e-10
1.49992e-10
1.41936e-10
1.31561e-10
1.18574e-10
1.02856e-10
8.46538e-11
6.47908e-11
4.48267e-11
2.69376e-11
1.32932e-11
4.98797e-12
1.28825e-12
2.05378e-13
1.92511e-14
1.42623e-15
1.80884e-11
1.79693e-11
1.77229e-11
1.73332e-11
1.67766e-11
1.60231e-11
1.50396e-11
1.37952e-11
1.22713e-11
1.0476e-11
8.46326e-12
6.34866e-12
4.31155e-12
2.56394e-12
1.27932e-12
5.08792e-13
1.52865e-13
3.35568e-14
5.671e-15
9.90827e-16
2.45384e-12
2.43616e-12
2.39969e-12
2.34228e-12
2.26085e-12
2.15161e-12
2.01063e-12
1.83471e-12
1.62276e-12
1.37772e-12
1.10862e-12
8.31818e-13
5.70143e-13
3.48166e-13
1.84075e-13
8.186e-14
3.00178e-14
9.17372e-15
2.54559e-15
7.93401e-16
4.21191e-13
4.18059e-13
4.11616e-13
4.01513e-13
3.87259e-13
3.6827e-13
3.43969e-13
3.13932e-13
2.78121e-13
2.37156e-13
1.92591e-13
1.47038e-13
1.03947e-13
6.69094e-14
3.85735e-14
1.96819e-14
8.90122e-15
3.67752e-15
1.50198e-15
6.87992e-16
9.19938e-14
9.13253e-14
8.99525e-14
8.78065e-14
8.47906e-14
8.07924e-14
7.57029e-14
6.94469e-14
6.20253e-14
5.35647e-14
4.43631e-14
3.4907e-14
2.5831e-14
1.78017e-14
1.13433e-14
6.67796e-15
3.67561e-15
1.95306e-15
1.05912e-15
6.25917e-16
2.55561e-14
2.53842e-14
2.50316e-14
2.44816e-14
2.37106e-14
2.26913e-14
2.13975e-14
1.98105e-14
1.79289e-14
1.57795e-14
1.34268e-14
1.09774e-14
8.57223e-15
6.36507e-15
4.48843e-15
3.02003e-15
1.96567e-15
1.26848e-15
8.3886e-16
5.87006e-16
8.98189e-15
8.92907e-15
8.82082e-15
8.65215e-15
8.41608e-15
8.10443e-15
7.70912e-15
7.224e-15
6.64743e-15
5.98506e-15
5.25253e-15
4.47682e-15
3.69498e-15
2.94954e-15
2.28084e-15
1.7185e-15
1.27546e-15
9.47309e-16
7.16895e-16
5.61587e-16
3.94874e-15
3.92963e-15
3.89048e-15
3.82953e-15
3.74428e-15
3.63176e-15
3.48897e-15
3.31339e-15
3.10384e-15
2.86131e-15
2.58991e-15
2.29732e-15
1.99473e-15
1.69579e-15
1.41462e-15
1.16339e-15
9.50113e-16
7.77672e-16
6.44183e-16
5.44514e-16
2.12717e-15
2.11918e-15
2.10282e-15
2.07736e-15
2.04175e-15
1.99474e-15
1.93502e-15
1.86139e-15
1.77311e-15
1.67015e-15
1.5536e-15
1.42584e-15
1.29066e-15
1.15297e-15
1.0183e-15
8.91976e-16
7.78356e-16
6.80211e-16
5.98549e-16
5.32828e-16
1.36079e-15
1.35701e-15
1.34928e-15
1.33724e-15
1.32042e-15
1.29819e-15
1.26992e-15
1.23499e-15
1.19291e-15
1.14351e-15
1.08703e-15
1.02424e-15
9.56529e-16
8.85853e-16
8.14562e-16
7.4515e-16
6.79936e-16
6.20772e-16
5.68865e-16
5.24727e-16
9.95656e-16
9.93678e-16
9.89629e-16
9.83332e-16
9.74529e-16
9.62902e-16
9.48099e-16
9.29771e-16
9.07625e-16
8.81484e-16
8.51357e-16
8.17497e-16
7.80447e-16
7.41041e-16
7.00358e-16
6.5963e-16
6.20116e-16
5.82957e-16
5.49069e-16
5.19067e-16
8.03535e-16
8.02412e-16
8.00114e-16
7.96541e-16
7.91549e-16
7.84957e-16
7.76562e-16
7.66159e-16
7.5356e-16
7.38633e-16
7.21333e-16
7.01735e-16
6.80061e-16
6.56691e-16
6.32153e-16
6.07088e-16
5.82197e-16
5.58174e-16
5.3564e-16
5.15093e-16
6.94372e-16
6.93692e-16
6.92303e-16
6.90145e-16
6.87132e-16
6.83157e-16
6.78097e-16
6.71824e-16
6.64221e-16
6.55194e-16
6.44695e-16
6.32738e-16
6.19418e-16
6.04919e-16
5.89513e-16
5.73552e-16
5.57437e-16
5.41593e-16
5.26426e-16
5.12296e-16
6.28639e-16
6.28208e-16
6.27328e-16
6.25961e-16
6.24056e-16
6.21546e-16
6.18354e-16
6.14399e-16
6.09606e-16
6.03912e-16
5.97277e-16
5.89697e-16
5.81215e-16
5.71925e-16
5.61976e-16
5.51567e-16
5.40936e-16
5.30346e-16
5.20061e-16
5.10327e-16
5.87326e-16
5.87043e-16
5.86466e-16
5.85572e-16
5.84326e-16
5.82687e-16
5.80606e-16
5.78031e-16
5.74914e-16
5.71212e-16
5.66897e-16
5.61961e-16
5.56424e-16
5.50337e-16
5.43785e-16
5.36887e-16
5.29786e-16
5.22649e-16
5.15645e-16
5.08943e-16
5.6055e-16
5.6036e-16
5.59972e-16
5.59372e-16
5.58538e-16
5.57443e-16
5.56055e-16
5.54342e-16
5.5227e-16
5.49813e-16
5.46951e-16
5.43678e-16
5.40002e-16
5.35954e-16
5.31584e-16
5.26965e-16
5.22187e-16
5.17354e-16
5.12579e-16
5.07972e-16
5.42817e-16
5.42688e-16
5.42423e-16
5.42015e-16
5.41448e-16
5.40705e-16
5.39766e-16
5.38609e-16
5.37213e-16
5.3556e-16
5.33638e-16
5.31441e-16
5.28975e-16
5.26258e-16
5.23322e-16
5.20211e-16
5.16983e-16
5.13705e-16
5.1045e-16
5.07293e-16
5.30905e-16
5.30816e-16
5.30634e-16
5.30353e-16
5.29964e-16
5.29455e-16
5.28814e-16
5.28026e-16
5.27077e-16
5.25957e-16
5.24656e-16
5.23172e-16
5.21508e-16
5.19676e-16
5.17695e-16
5.15594e-16
5.13411e-16
5.11189e-16
5.08976e-16
5.0682e-16
5.22831e-16
5.22769e-16
5.22644e-16
5.2245e-16
5.22182e-16
5.21832e-16
5.21392e-16
5.20853e-16
5.20206e-16
5.19444e-16
5.18561e-16
5.17556e-16
5.1643e-16
5.15192e-16
5.13854e-16
5.12436e-16
5.10961e-16
5.09458e-16
5.07957e-16
5.06492e-16
5.17333e-16
5.1729e-16
5.17203e-16
5.1707e-16
5.16885e-16
5.16644e-16
5.16342e-16
5.15973e-16
5.15532e-16
5.15013e-16
5.14413e-16
5.13732e-16
5.12971e-16
5.12135e-16
5.11233e-16
5.10277e-16
5.09283e-16
5.0827e-16
5.07257e-16
5.06266e-16
5.13584e-16
5.13554e-16
5.13494e-16
5.13402e-16
5.13275e-16
5.1311e-16
5.12903e-16
5.12651e-16
5.1235e-16
5.11997e-16
5.11591e-16
5.11131e-16
5.10617e-16
5.10054e-16
5.09448e-16
5.08806e-16
5.08138e-16
5.07458e-16
5.06777e-16
5.06111e-16
5.11029e-16
5.11009e-16
5.10968e-16
5.10904e-16
5.10817e-16
5.10704e-16
5.10563e-16
5.10392e-16
5.10187e-16
5.09949e-16
5.09674e-16
5.09364e-16
5.09019e-16
5.08642e-16
5.08235e-16
5.07806e-16
5.0736e-16
5.06905e-16
5.06451e-16
5.06005e-16
5.09294e-16
5.0928e-16
5.09252e-16
5.09208e-16
5.09149e-16
5.09072e-16
5.08976e-16
5.0886e-16
5.08722e-16
5.08561e-16
5.08377e-16
5.08169e-16
5.07938e-16
5.07686e-16
5.07416e-16
5.0713e-16
5.06833e-16
5.06531e-16
5.06229e-16
5.05934e-16
5.0812e-16
5.0811e-16
5.08091e-16
5.08061e-16
5.08021e-16
5.07969e-16
5.07905e-16
5.07826e-16
5.07734e-16
5.07626e-16
5.07503e-16
5.07364e-16
5.07211e-16
5.07044e-16
5.06864e-16
5.06675e-16
5.06479e-16
5.0628e-16
5.06081e-16
5.05885e-16
5.07329e-16
5.07323e-16
5.0731e-16
5.0729e-16
5.07263e-16
5.07228e-16
5.07185e-16
5.07132e-16
5.07071e-16
5.06999e-16
5.06917e-16
5.06825e-16
5.06724e-16
5.06614e-16
5.06496e-16
5.06371e-16
5.06243e-16
5.06112e-16
5.05981e-16
5.05853e-16
5.068e-16
5.06796e-16
5.06787e-16
5.06774e-16
5.06756e-16
5.06733e-16
5.06704e-16
5.06669e-16
5.06628e-16
5.06581e-16
5.06527e-16
5.06467e-16
5.064e-16
5.06328e-16
5.06251e-16
5.06169e-16
5.06085e-16
5.06e-16
5.05915e-16
5.05832e-16
5.06448e-16
5.06446e-16
5.0644e-16
5.06431e-16
5.06419e-16
5.06404e-16
5.06385e-16
5.06362e-16
5.06335e-16
5.06304e-16
5.06269e-16
5.06229e-16
5.06186e-16
5.06139e-16
5.06089e-16
5.06036e-16
5.05982e-16
5.05927e-16
5.05871e-16
5.05817e-16
5.06216e-16
5.06214e-16
5.06211e-16
5.06205e-16
5.06197e-16
5.06187e-16
5.06174e-16
5.0616e-16
5.06142e-16
5.06122e-16
5.06099e-16
5.06073e-16
5.06045e-16
5.06015e-16
5.05983e-16
5.05949e-16
5.05914e-16
5.05878e-16
5.05843e-16
5.05808e-16
5.06064e-16
5.06063e-16
5.0606e-16
5.06057e-16
5.06052e-16
5.06045e-16
5.06037e-16
5.06027e-16
5.06016e-16
5.06003e-16
5.05988e-16
5.05972e-16
5.05954e-16
5.05934e-16
5.05914e-16
5.05892e-16
5.05869e-16
5.05847e-16
5.05824e-16
5.05802e-16
5.05965e-16
5.05964e-16
5.05963e-16
5.0596e-16
5.05957e-16
5.05953e-16
5.05948e-16
5.05941e-16
5.05934e-16
5.05926e-16
5.05916e-16
5.05906e-16
5.05894e-16
5.05882e-16
5.05869e-16
5.05855e-16
5.05841e-16
5.05827e-16
5.05812e-16
5.05798e-16
5.05901e-16
5.05901e-16
5.059e-16
5.05898e-16
5.05896e-16
5.05893e-16
5.0589e-16
5.05886e-16
5.05882e-16
5.05876e-16
5.0587e-16
5.05864e-16
5.05856e-16
5.05848e-16
5.0584e-16
5.05832e-16
5.05823e-16
5.05814e-16
5.05805e-16
5.05796e-16
5.0586e-16
5.0586e-16
5.05859e-16
5.05858e-16
5.05857e-16
5.05855e-16
5.05853e-16
5.05851e-16
5.05848e-16
5.05845e-16
5.05841e-16
5.05837e-16
5.05832e-16
5.05827e-16
5.05822e-16
5.05816e-16
5.05811e-16
5.05805e-16
5.058e-16
5.05794e-16
5.05834e-16
5.05834e-16
5.05834e-16
5.05833e-16
5.05832e-16
5.05831e-16
5.0583e-16
5.05828e-16
5.05827e-16
5.05824e-16
5.05822e-16
5.05819e-16
5.05817e-16
5.05814e-16
5.0581e-16
5.05807e-16
5.05804e-16
5.058e-16
5.05797e-16
5.05793e-16
5.05818e-16
5.05818e-16
5.05818e-16
5.05817e-16
5.05817e-16
5.05816e-16
5.05815e-16
5.05814e-16
5.05813e-16
5.05812e-16
5.0581e-16
5.05809e-16
5.05807e-16
5.05805e-16
5.05803e-16
5.05801e-16
5.05799e-16
5.05797e-16
5.05795e-16
5.05793e-16
5.05808e-16
5.05808e-16
5.05808e-16
5.05807e-16
5.05807e-16
5.05807e-16
5.05806e-16
5.05805e-16
5.05805e-16
5.05804e-16
5.05803e-16
5.05802e-16
5.05801e-16
5.058e-16
5.05799e-16
5.05797e-16
5.05796e-16
5.05795e-16
5.05793e-16
5.05792e-16
5.05801e-16
5.05801e-16
5.05801e-16
5.05801e-16
5.05801e-16
5.05801e-16
5.058e-16
5.058e-16
5.058e-16
5.05799e-16
5.05799e-16
5.05798e-16
5.05797e-16
5.05797e-16
5.05796e-16
5.05795e-16
5.05794e-16
5.05793e-16
5.05793e-16
5.05792e-16
5.05798e-16
5.05798e-16
5.05797e-16
5.05797e-16
5.05797e-16
5.05797e-16
5.05797e-16
5.05797e-16
5.05796e-16
5.05796e-16
5.05796e-16
5.05795e-16
5.05795e-16
5.05795e-16
5.05794e-16
5.05794e-16
5.05793e-16
5.05793e-16
5.05792e-16
5.05792e-16
5.05795e-16
5.05795e-16
5.05795e-16
5.05795e-16
5.05795e-16
5.05795e-16
5.05795e-16
5.05795e-16
5.05794e-16
5.05794e-16
5.05794e-16
5.05794e-16
5.05794e-16
5.05793e-16
5.05793e-16
5.05793e-16
5.05793e-16
5.05792e-16
5.05792e-16
5.05792e-16
5.05794e-16
5.05794e-16
5.05794e-16
5.05794e-16
5.05794e-16
5.05794e-16
5.05794e-16
5.05793e-16
5.05793e-16
5.05793e-16
5.05793e-16
5.05793e-16
5.05793e-16
5.05793e-16
5.05792e-16
5.05792e-16
5.05792e-16
5.05792e-16
5.05792e-16
5.05792e-16
5.05793e-16
5.05793e-16
5.05793e-16
5.05793e-16
5.05793e-16
5.05793e-16
5.05793e-16
5.05793e-16
5.05793e-16
5.05793e-16
5.05793e-16
5.05792e-16
5.05792e-16
5.05792e-16
5.05792e-16
5.05792e-16
5.05792e-16
5.05792e-16
5.05792e-16
5.05792e-16
5.05793e-16
5.05793e-16
5.05793e-16
5.05793e-16
5.05793e-16
5.05793e-16
5.05793e-16
5.05793e-16
5.05792e-16
5.05792e-16
5.05792e-16
5.05792e-16
5.05792e-16
5.05792e-16
5.05792e-16
5.05792e-16
5.05792e-16
5.05792e-16
5.05792e-16
5.05792e-16
)
;

boundaryField
{
    topWall
    {
        type            calculated;
        value           uniform 0;
    }
    bottomWall
    {
        type            zeroGradient;
    }
    sideWallL
    {
        type            symmetry;
    }
    sideWallR
    {
        type            calculated;
        value           uniform 0;
    }
    frontAndBack
    {
        type            empty;
    }
}


// ************************************************************************* //
