/*--------------------------------*- C++ -*----------------------------------*\
  =========                 |
  \\      /  F ield         | OpenFOAM: The Open Source CFD Toolbox
   \\    /   O peration     | Website:  https://openfoam.org
    \\  /    A nd           | Version:  7
     \\/     M anipulation  |
\*---------------------------------------------------------------------------*/
FoamFile
{
    version     2.0;
    format      ascii;
    class       volScalarField;
    location    "19";
    object      rhois;
}
// * * * * * * * * * * * * * * * * * * * * * * * * * * * * * * * * * * * * * //

dimensions      [1 -3 0 0 0 0 0];

internalField   nonuniform List<scalar> 
900
(
0.000187159
0.000187089
0.000186943
0.000186706
0.000186352
0.000185845
0.000185131
0.000184132
0.000182737
0.000180783
0.000178033
0.000174135
0.000168551
0.00016045
0.000148507
0.000130569
0.000103272
6.31406e-05
1.77065e-05
2.10307e-07
2.35859e-05
2.35572e-05
2.34969e-05
2.33991e-05
2.32542e-05
2.30479e-05
2.27602e-05
2.23627e-05
2.18169e-05
2.10706e-05
2.00545e-05
1.86798e-05
1.68396e-05
1.44233e-05
1.13633e-05
7.75082e-06
4.05101e-06
1.24158e-06
1.1821e-07
7.6294e-10
3.20638e-06
3.19948e-06
3.18502e-06
3.16167e-06
3.12728e-06
3.07876e-06
3.01181e-06
2.92076e-06
2.79832e-06
2.63554e-06
2.42227e-06
2.14858e-06
1.80816e-06
1.40505e-06
9.64181e-07
5.41674e-07
2.18136e-07
4.97128e-08
4.29662e-09
9.37704e-11
4.84089e-07
4.82594e-07
4.79474e-07
4.74458e-07
4.67121e-07
4.56864e-07
4.42891e-07
4.24202e-07
3.99618e-07
3.67874e-07
3.27854e-07
2.79046e-07
2.22298e-07
1.60814e-07
1.00894e-07
5.11688e-08
1.88633e-08
4.35065e-09
5.34706e-10
3.87912e-11
8.33099e-08
8.29832e-08
8.23031e-08
8.12151e-08
7.96349e-08
7.74466e-08
7.4503e-08
7.063e-08
6.56411e-08
5.937e-08
5.1729e-08
4.28016e-08
3.29608e-08
2.2963e-08
1.39114e-08
6.94498e-09
2.66933e-09
7.36846e-10
1.44099e-10
2.49601e-11
1.67004e-08
1.66241e-08
1.64658e-08
1.62138e-08
1.58501e-08
1.5351e-08
1.46875e-08
1.3827e-08
1.27386e-08
1.14006e-08
9.81336e-09
8.01648e-09
6.10504e-09
4.23458e-09
2.59749e-09
1.36111e-09
5.88993e-10
2.07379e-10
6.24601e-11
1.94345e-11
3.96397e-09
3.94434e-09
3.90369e-09
3.83922e-09
3.74677e-09
3.62088e-09
3.45514e-09
3.2428e-09
2.97799e-09
2.65776e-09
2.28478e-09
1.87063e-09
1.43812e-09
1.02064e-09
6.56125e-10
3.75264e-10
1.89114e-10
8.5135e-11
3.63896e-11
1.66614e-11
1.12641e-09
1.12072e-09
1.10898e-09
1.09043e-09
1.06396e-09
1.02815e-09
9.81359e-10
9.21948e-10
8.48598e-10
7.60824e-10
6.59637e-10
5.48225e-10
4.32355e-10
3.20045e-10
2.20133e-10
1.39843e-10
8.23684e-11
4.59968e-11
2.55459e-11
1.50813e-11
3.85501e-10
3.83636e-10
3.79791e-10
3.73732e-10
3.6512e-10
3.53527e-10
3.38465e-10
3.19456e-10
2.9613e-10
2.68365e-10
2.36472e-10
2.01358e-10
1.64621e-10
1.28453e-10
9.52939e-11
6.72588e-11
4.55548e-11
3.01968e-11
2.01983e-11
1.41091e-11
1.59036e-10
1.58342e-10
1.56913e-10
1.54666e-10
1.51482e-10
1.47211e-10
1.41683e-10
1.34732e-10
1.26226e-10
1.16117e-10
1.04491e-10
9.16205e-11
7.79941e-11
6.4292e-11
5.12967e-11
3.97402e-11
3.01386e-11
2.26835e-11
1.72459e-11
1.34809e-11
7.86239e-11
7.83327e-11
7.77335e-11
7.67933e-11
7.54639e-11
7.36849e-11
7.13878e-11
6.85047e-11
6.49798e-11
6.07859e-11
5.59433e-11
5.0538e-11
4.47331e-11
3.87645e-11
3.29163e-11
2.74759e-11
2.26802e-11
1.86724e-11
1.54861e-11
1.30614e-11
4.58898e-11
4.57535e-11
4.54732e-11
4.5034e-11
4.44141e-11
4.3586e-11
4.25183e-11
4.11794e-11
3.95419e-11
3.7589e-11
3.53227e-11
3.27704e-11
2.99907e-11
2.70735e-11
2.41328e-11
2.12928e-11
1.86686e-11
1.6348e-11
1.43804e-11
1.27753e-11
3.08717e-11
3.08015e-11
3.06572e-11
3.04314e-11
3.01131e-11
2.96886e-11
2.91418e-11
2.84564e-11
2.76175e-11
2.66146e-11
2.54451e-11
2.41173e-11
2.26535e-11
2.10906e-11
1.94783e-11
1.78746e-11
1.6338e-11
1.49203e-11
1.36596e-11
1.25771e-11
2.3252e-11
2.32128e-11
2.31323e-11
2.30065e-11
2.28293e-11
2.25933e-11
2.22898e-11
2.19094e-11
2.14436e-11
2.08858e-11
2.02326e-11
1.94862e-11
1.86554e-11
1.77563e-11
1.68122e-11
1.58519e-11
1.49065e-11
1.40065e-11
1.31776e-11
1.24386e-11
1.90567e-11
1.90334e-11
1.89854e-11
1.89105e-11
1.88053e-11
1.86653e-11
1.84854e-11
1.82602e-11
1.79845e-11
1.76539e-11
1.72659e-11
1.68204e-11
1.6321e-11
1.57752e-11
1.51946e-11
1.45942e-11
1.39915e-11
1.34043e-11
1.28496e-11
1.23412e-11
1.65932e-11
1.65785e-11
1.65484e-11
1.65015e-11
1.64357e-11
1.63483e-11
1.62362e-11
1.60961e-11
1.59246e-11
1.5719e-11
1.54773e-11
1.51991e-11
1.48858e-11
1.4541e-11
1.4171e-11
1.37838e-11
1.33897e-11
1.29994e-11
1.26238e-11
1.22725e-11
1.50733e-11
1.50637e-11
1.50441e-11
1.50135e-11
1.49707e-11
1.49141e-11
1.48415e-11
1.47509e-11
1.46403e-11
1.45077e-11
1.43519e-11
1.41723e-11
1.39695e-11
1.37454e-11
1.35035e-11
1.32484e-11
1.29861e-11
1.27234e-11
1.24671e-11
1.2224e-11
1.41002e-11
1.40938e-11
1.40806e-11
1.40602e-11
1.40316e-11
1.39938e-11
1.39455e-11
1.38853e-11
1.3812e-11
1.37243e-11
1.36214e-11
1.35026e-11
1.33685e-11
1.32199e-11
1.30589e-11
1.28883e-11
1.27118e-11
1.25335e-11
1.2358e-11
1.21897e-11
1.34603e-11
1.34559e-11
1.34469e-11
1.34329e-11
1.34134e-11
1.33877e-11
1.3355e-11
1.33143e-11
1.32648e-11
1.32058e-11
1.31365e-11
1.30568e-11
1.29667e-11
1.28669e-11
1.27585e-11
1.26434e-11
1.25237e-11
1.24023e-11
1.22819e-11
1.21656e-11
1.30315e-11
1.30284e-11
1.30222e-11
1.30125e-11
1.29991e-11
1.29813e-11
1.29588e-11
1.2931e-11
1.28972e-11
1.2857e-11
1.28099e-11
1.27559e-11
1.26948e-11
1.26272e-11
1.25538e-11
1.24756e-11
1.23942e-11
1.23113e-11
1.22288e-11
1.21487e-11
1.27404e-11
1.27383e-11
1.27339e-11
1.27272e-11
1.27178e-11
1.27055e-11
1.269e-11
1.26708e-11
1.26475e-11
1.262e-11
1.25878e-11
1.25509e-11
1.25093e-11
1.24633e-11
1.24134e-11
1.23603e-11
1.23048e-11
1.22483e-11
1.21918e-11
1.21368e-11
1.25413e-11
1.25398e-11
1.25368e-11
1.2532e-11
1.25255e-11
1.2517e-11
1.25062e-11
1.24929e-11
1.24769e-11
1.24579e-11
1.24359e-11
1.24107e-11
1.23823e-11
1.2351e-11
1.2317e-11
1.22809e-11
1.22432e-11
1.22046e-11
1.21662e-11
1.21285e-11
1.24046e-11
1.24035e-11
1.24014e-11
1.23981e-11
1.23935e-11
1.23876e-11
1.23801e-11
1.23709e-11
1.23599e-11
1.23469e-11
1.23317e-11
1.23145e-11
1.22952e-11
1.22739e-11
1.22508e-11
1.22263e-11
1.22007e-11
1.21745e-11
1.21484e-11
1.21228e-11
1.23106e-11
1.23098e-11
1.23083e-11
1.2306e-11
1.23029e-11
1.22987e-11
1.22936e-11
1.22872e-11
1.22796e-11
1.22707e-11
1.22604e-11
1.22486e-11
1.22355e-11
1.2221e-11
1.22054e-11
1.21888e-11
1.21715e-11
1.21538e-11
1.21362e-11
1.21188e-11
1.2246e-11
1.22455e-11
1.22445e-11
1.22429e-11
1.22407e-11
1.22378e-11
1.22342e-11
1.22299e-11
1.22247e-11
1.22186e-11
1.22116e-11
1.22036e-11
1.21947e-11
1.21849e-11
1.21744e-11
1.21632e-11
1.21515e-11
1.21397e-11
1.21278e-11
1.21161e-11
1.22018e-11
1.22014e-11
1.22007e-11
1.21996e-11
1.21981e-11
1.21962e-11
1.21937e-11
1.21907e-11
1.21872e-11
1.2183e-11
1.21783e-11
1.21729e-11
1.21669e-11
1.21603e-11
1.21532e-11
1.21457e-11
1.2138e-11
1.213e-11
1.21221e-11
1.21143e-11
1.21716e-11
1.21714e-11
1.21709e-11
1.21702e-11
1.21691e-11
1.21678e-11
1.21661e-11
1.21641e-11
1.21617e-11
1.21589e-11
1.21557e-11
1.21521e-11
1.2148e-11
1.21437e-11
1.21389e-11
1.21339e-11
1.21288e-11
1.21235e-11
1.21182e-11
1.2113e-11
1.21512e-11
1.2151e-11
1.21507e-11
1.21502e-11
1.21495e-11
1.21486e-11
1.21475e-11
1.21461e-11
1.21445e-11
1.21426e-11
1.21404e-11
1.2138e-11
1.21354e-11
1.21324e-11
1.21293e-11
1.2126e-11
1.21226e-11
1.21191e-11
1.21156e-11
1.21122e-11
1.21374e-11
1.21373e-11
1.21371e-11
1.21367e-11
1.21363e-11
1.21356e-11
1.21349e-11
1.2134e-11
1.21329e-11
1.21316e-11
1.21302e-11
1.21286e-11
1.21268e-11
1.21249e-11
1.21229e-11
1.21207e-11
1.21184e-11
1.21161e-11
1.21138e-11
1.21116e-11
1.21282e-11
1.21281e-11
1.21279e-11
1.21277e-11
1.21274e-11
1.2127e-11
1.21265e-11
1.21259e-11
1.21252e-11
1.21243e-11
1.21234e-11
1.21223e-11
1.21212e-11
1.21199e-11
1.21186e-11
1.21171e-11
1.21157e-11
1.21142e-11
1.21127e-11
1.21112e-11
1.2122e-11
1.2122e-11
1.21219e-11
1.21217e-11
1.21215e-11
1.21212e-11
1.21209e-11
1.21205e-11
1.212e-11
1.21195e-11
1.21189e-11
1.21182e-11
1.21174e-11
1.21166e-11
1.21157e-11
1.21148e-11
1.21139e-11
1.21129e-11
1.21119e-11
1.2111e-11
1.2118e-11
1.21179e-11
1.21179e-11
1.21178e-11
1.21176e-11
1.21174e-11
1.21172e-11
1.2117e-11
1.21167e-11
1.21163e-11
1.21159e-11
1.21155e-11
1.2115e-11
1.21144e-11
1.21139e-11
1.21133e-11
1.21127e-11
1.2112e-11
1.21114e-11
1.21108e-11
1.21153e-11
1.21153e-11
1.21152e-11
1.21152e-11
1.21151e-11
1.2115e-11
1.21148e-11
1.21147e-11
1.21145e-11
1.21142e-11
1.2114e-11
1.21137e-11
1.21134e-11
1.2113e-11
1.21127e-11
1.21123e-11
1.21119e-11
1.21115e-11
1.21111e-11
1.21107e-11
1.21136e-11
1.21136e-11
1.21135e-11
1.21135e-11
1.21134e-11
1.21134e-11
1.21133e-11
1.21132e-11
1.2113e-11
1.21129e-11
1.21127e-11
1.21125e-11
1.21123e-11
1.21121e-11
1.21119e-11
1.21116e-11
1.21114e-11
1.21111e-11
1.21109e-11
1.21106e-11
1.21125e-11
1.21124e-11
1.21124e-11
1.21124e-11
1.21124e-11
1.21123e-11
1.21123e-11
1.21122e-11
1.21121e-11
1.2112e-11
1.21119e-11
1.21118e-11
1.21117e-11
1.21115e-11
1.21114e-11
1.21112e-11
1.21111e-11
1.21109e-11
1.21108e-11
1.21106e-11
1.21117e-11
1.21117e-11
1.21117e-11
1.21117e-11
1.21117e-11
1.21116e-11
1.21116e-11
1.21116e-11
1.21115e-11
1.21115e-11
1.21114e-11
1.21113e-11
1.21112e-11
1.21112e-11
1.21111e-11
1.2111e-11
1.21109e-11
1.21108e-11
1.21107e-11
1.21106e-11
1.21113e-11
1.21113e-11
1.21113e-11
1.21113e-11
1.21112e-11
1.21112e-11
1.21112e-11
1.21112e-11
1.21111e-11
1.21111e-11
1.21111e-11
1.2111e-11
1.2111e-11
1.21109e-11
1.21109e-11
1.21108e-11
1.21107e-11
1.21107e-11
1.21106e-11
1.21106e-11
1.2111e-11
1.2111e-11
1.2111e-11
1.2111e-11
1.2111e-11
1.2111e-11
1.21109e-11
1.21109e-11
1.21109e-11
1.21109e-11
1.21109e-11
1.21108e-11
1.21108e-11
1.21108e-11
1.21107e-11
1.21107e-11
1.21107e-11
1.21106e-11
1.21106e-11
1.21105e-11
1.21108e-11
1.21108e-11
1.21108e-11
1.21108e-11
1.21108e-11
1.21108e-11
1.21108e-11
1.21108e-11
1.21108e-11
1.21107e-11
1.21107e-11
1.21107e-11
1.21107e-11
1.21107e-11
1.21107e-11
1.21106e-11
1.21106e-11
1.21106e-11
1.21106e-11
1.21105e-11
1.21107e-11
1.21107e-11
1.21107e-11
1.21107e-11
1.21107e-11
1.21107e-11
1.21107e-11
1.21107e-11
1.21107e-11
1.21107e-11
1.21106e-11
1.21106e-11
1.21106e-11
1.21106e-11
1.21106e-11
1.21106e-11
1.21106e-11
1.21106e-11
1.21105e-11
1.21105e-11
1.21106e-11
1.21106e-11
1.21106e-11
1.21106e-11
1.21106e-11
1.21106e-11
1.21106e-11
1.21106e-11
1.21106e-11
1.21106e-11
1.21106e-11
1.21106e-11
1.21106e-11
1.21106e-11
1.21106e-11
1.21106e-11
1.21106e-11
1.21105e-11
1.21105e-11
1.21105e-11
1.21106e-11
1.21106e-11
1.21106e-11
1.21106e-11
1.21106e-11
1.21106e-11
1.21106e-11
1.21106e-11
1.21106e-11
1.21106e-11
1.21106e-11
1.21106e-11
1.21106e-11
1.21106e-11
1.21106e-11
1.21105e-11
1.21105e-11
1.21105e-11
1.21105e-11
1.21105e-11
1.21106e-11
1.21106e-11
1.21106e-11
1.21106e-11
1.21106e-11
1.21106e-11
1.21106e-11
1.21106e-11
1.21106e-11
1.21106e-11
1.21106e-11
1.21106e-11
1.21105e-11
1.21105e-11
1.21105e-11
1.21105e-11
1.21105e-11
1.21105e-11
1.21105e-11
1.21105e-11
1.21106e-11
1.21106e-11
1.21106e-11
1.21106e-11
1.21106e-11
1.21106e-11
1.21106e-11
1.21105e-11
1.21105e-11
1.21105e-11
1.21105e-11
1.21105e-11
1.21105e-11
1.21105e-11
1.21105e-11
1.21105e-11
1.21105e-11
1.21105e-11
1.21105e-11
1.21105e-11
1.21105e-11
1.21105e-11
1.21105e-11
1.21105e-11
1.21105e-11
1.21105e-11
1.21105e-11
1.21105e-11
1.21105e-11
1.21105e-11
1.21105e-11
1.21105e-11
1.21105e-11
1.21105e-11
1.21105e-11
1.21105e-11
1.21105e-11
1.21105e-11
1.21105e-11
1.21105e-11
)
;

boundaryField
{
    topWall
    {
        type            zeroGradient;
    }
    bottomWall
    {
        type            zeroGradient;
    }
    sideWallL
    {
        type            symmetry;
    }
    sideWallR
    {
        type            zeroGradient;
    }
    frontAndBack
    {
        type            empty;
    }
}


// ************************************************************************* //
