/*--------------------------------*- C++ -*----------------------------------*\
  =========                 |
  \\      /  F ield         | OpenFOAM: The Open Source CFD Toolbox
   \\    /   O peration     | Website:  https://openfoam.org
    \\  /    A nd           | Version:  7
     \\/     M anipulation  |
\*---------------------------------------------------------------------------*/
FoamFile
{
    version     2.0;
    format      ascii;
    class       volScalarField;
    location    "19";
    object      rhot2;
}
// * * * * * * * * * * * * * * * * * * * * * * * * * * * * * * * * * * * * * //

dimensions      [1 -3 0 0 0 0 0];

internalField   nonuniform List<scalar> 
900
(
1.2213e-10
1.22009e-10
1.21754e-10
1.21341e-10
1.20729e-10
1.19856e-10
1.18636e-10
1.16946e-10
1.14615e-10
1.11405e-10
1.06991e-10
1.00934e-10
9.26501e-11
8.14218e-11
6.64921e-11
4.74867e-11
2.57356e-11
7.12685e-12
2.58148e-13
2.35684e-18
5.79481e-13
5.77593e-13
5.73646e-13
5.67288e-13
5.57963e-13
5.44879e-13
5.26974e-13
5.02898e-13
4.71032e-13
4.29614e-13
3.77074e-13
3.12733e-13
2.38068e-13
1.58501e-13
8.47993e-14
3.11175e-14
5.68945e-15
2.56943e-16
5.36071e-19
8.3504e-25
3.31164e-15
3.29256e-15
3.25286e-15
3.18946e-15
3.09763e-15
2.97106e-15
2.80213e-15
2.58257e-15
2.30519e-15
1.96687e-15
1.57359e-15
1.1467e-15
7.27773e-16
3.74651e-16
1.39172e-16
3.0571e-17
2.79774e-18
5.69722e-20
8.74341e-23
2.9142e-27
2.45596e-17
2.43565e-17
2.39361e-17
2.32706e-17
2.23195e-17
2.10331e-17
1.93597e-17
1.72589e-17
1.4725e-17
1.182e-17
8.71016e-18
5.68491e-18
3.11661e-18
1.32523e-18
3.87092e-19
6.44581e-20
4.60832e-21
9.40675e-23
3.43229e-25
2.61653e-28
2.52652e-19
2.49991e-19
2.44512e-19
2.35912e-19
2.23779e-19
2.07661e-19
1.87189e-19
1.62288e-19
1.33465e-19
1.02128e-19
7.07812e-20
4.27803e-20
2.13773e-20
8.19123e-21
2.1657e-21
3.41887e-22
2.67426e-23
8.46908e-25
1.00065e-26
7.85952e-29
3.80881e-21
3.76189e-21
3.66571e-21
3.51592e-21
3.30698e-21
3.03363e-21
2.69334e-21
2.28991e-21
1.83767e-21
1.36495e-21
9.13821e-22
5.32116e-22
2.56959e-22
9.66517e-23
2.61384e-23
4.61707e-24
4.82339e-25
2.80992e-26
1.01639e-27
3.99088e-29
8.76238e-23
8.64446e-23
8.4036e-23
8.03082e-23
7.51539e-23
6.84891e-23
6.03136e-23
5.07923e-23
4.03392e-23
2.96655e-23
1.97246e-23
1.14999e-23
5.65689e-24
2.24037e-24
6.77203e-25
1.48123e-25
2.26298e-26
2.47373e-27
2.28459e-28
2.63975e-29
3.15509e-24
3.11136e-24
3.02229e-24
2.88502e-24
2.69635e-24
2.4542e-24
2.15975e-24
1.82005e-24
1.45058e-24
1.07616e-24
7.2857e-25
4.39358e-25
2.29402e-25
1.00519e-25
3.58584e-26
1.01969e-26
2.32239e-27
4.49529e-28
8.57748e-29
2.02482e-29
1.79831e-25
1.77402e-25
1.72462e-25
1.64866e-25
1.54459e-25
1.41144e-25
1.24999e-25
1.06404e-25
8.61542e-26
6.55089e-26
4.60668e-26
2.94401e-26
1.67804e-26
8.3791e-27
3.61873e-27
1.35121e-27
4.46577e-28
1.38797e-28
4.49041e-29
1.69807e-29
1.62255e-26
1.60235e-26
1.56127e-26
1.49814e-26
1.41167e-26
1.30099e-26
1.16649e-26
1.01077e-26
8.39574e-27
6.62107e-27
4.90413e-27
3.37285e-27
2.13076e-27
1.22658e-27
6.42259e-28
3.08779e-28
1.39873e-28
6.2457e-29
2.91664e-29
1.50681e-29
2.29555e-27
2.2707e-27
2.22014e-27
2.1424e-27
2.03569e-27
1.89863e-27
1.73107e-27
1.53515e-27
1.3164e-27
1.0843e-27
8.51918e-28
6.34234e-28
4.45088e-28
2.9382e-28
1.8304e-28
1.08777e-28
6.29137e-29
3.64303e-29
2.18067e-29
1.38755e-29
4.98044e-28
4.93635e-28
4.84661e-28
4.70834e-28
4.51795e-28
4.27209e-28
3.96902e-28
3.61025e-28
3.20236e-28
2.75824e-28
2.2973e-28
1.84382e-28
1.42316e-28
1.05689e-28
7.58235e-29
5.29977e-29
3.65634e-29
2.53112e-29
1.78882e-29
1.30999e-29
1.58891e-28
1.57806e-28
1.55596e-28
1.52184e-28
1.47468e-28
1.41342e-28
1.33726e-28
1.24596e-28
1.1403e-28
1.02243e-28
8.96e-29
7.66114e-29
6.38735e-29
5.19811e-29
4.1425e-29
3.25101e-29
2.53246e-29
1.97667e-29
1.56105e-29
1.25808e-29
6.99766e-29
6.96252e-29
6.89082e-29
6.77987e-29
6.62602e-29
6.42518e-29
6.17357e-29
5.86869e-29
5.51053e-29
5.10273e-29
4.65347e-29
4.17568e-29
3.68632e-29
3.20451e-29
2.74898e-29
2.33531e-29
1.97392e-29
1.66927e-29
1.42046e-29
1.22267e-29
3.95217e-29
3.93798e-29
3.90902e-29
3.86414e-29
3.80176e-29
3.72002e-29
3.61702e-29
3.49121e-29
3.34171e-29
3.16888e-29
2.97462e-29
2.76266e-29
2.53857e-29
2.3093e-29
2.08254e-29
1.86578e-29
1.66539e-29
1.48596e-29
1.33004e-29
1.19821e-29
2.67164e-29
2.66488e-29
2.65108e-29
2.62967e-29
2.59988e-29
2.56075e-29
2.51127e-29
2.45048e-29
2.3777e-29
2.29267e-29
2.19574e-29
2.08807e-29
1.97169e-29
1.84939e-29
1.72458e-29
1.60094e-29
1.48205e-29
1.37103e-29
1.27023e-29
1.18117e-29
2.0457e-29
2.04206e-29
2.03464e-29
2.02313e-29
2.00711e-29
1.98604e-29
1.95934e-29
1.92644e-29
1.88687e-29
1.84031e-29
1.78676e-29
1.72657e-29
1.66053e-29
1.58986e-29
1.51619e-29
1.4414e-29
1.3675e-29
1.29644e-29
1.22991e-29
1.16925e-29
1.70493e-29
1.7028e-29
1.69845e-29
1.69171e-29
1.68233e-29
1.67e-29
1.65436e-29
1.63507e-29
1.61181e-29
1.58434e-29
1.55257e-29
1.51659e-29
1.47673e-29
1.43357e-29
1.38794e-29
1.34084e-29
1.29343e-29
1.2469e-29
1.20239e-29
1.16089e-29
1.5048e-29
1.50347e-29
1.50077e-29
1.49658e-29
1.49076e-29
1.48311e-29
1.47341e-29
1.46145e-29
1.44702e-29
1.42994e-29
1.41014e-29
1.38762e-29
1.36253e-29
1.33516e-29
1.30595e-29
1.27547e-29
1.24441e-29
1.2135e-29
1.18347e-29
1.15503e-29
1.3809e-29
1.38004e-29
1.37828e-29
1.37557e-29
1.37181e-29
1.36687e-29
1.36062e-29
1.35292e-29
1.34363e-29
1.33264e-29
1.31988e-29
1.30534e-29
1.28909e-29
1.27129e-29
1.25218e-29
1.23211e-29
1.21148e-29
1.19075e-29
1.17041e-29
1.15093e-29
1.30136e-29
1.30079e-29
1.29962e-29
1.29782e-29
1.29532e-29
1.29205e-29
1.28792e-29
1.28283e-29
1.2767e-29
1.26946e-29
1.26106e-29
1.25148e-29
1.24076e-29
1.22899e-29
1.21632e-29
1.20295e-29
1.18914e-29
1.17518e-29
1.16139e-29
1.14807e-29
1.24906e-29
1.24867e-29
1.24788e-29
1.24666e-29
1.24497e-29
1.24277e-29
1.23999e-29
1.23658e-29
1.23248e-29
1.22764e-29
1.22203e-29
1.21564e-29
1.20849e-29
1.20063e-29
1.19216e-29
1.18321e-29
1.17392e-29
1.16451e-29
1.15515e-29
1.14607e-29
1.21412e-29
1.21385e-29
1.21331e-29
1.21248e-29
1.21133e-29
1.20983e-29
1.20795e-29
1.20564e-29
1.20287e-29
1.19961e-29
1.19584e-29
1.19154e-29
1.18675e-29
1.18148e-29
1.17579e-29
1.16978e-29
1.16353e-29
1.15718e-29
1.15086e-29
1.14469e-29
1.19057e-29
1.19038e-29
1.19001e-29
1.18944e-29
1.18866e-29
1.18763e-29
1.18635e-29
1.18478e-29
1.1829e-29
1.1807e-29
1.17815e-29
1.17526e-29
1.17203e-29
1.16849e-29
1.16468e-29
1.16064e-29
1.15644e-29
1.15217e-29
1.14791e-29
1.14374e-29
1.17461e-29
1.17449e-29
1.17423e-29
1.17384e-29
1.1733e-29
1.17261e-29
1.17173e-29
1.17066e-29
1.16939e-29
1.1679e-29
1.16618e-29
1.16424e-29
1.16207e-29
1.15969e-29
1.15713e-29
1.15443e-29
1.15161e-29
1.14875e-29
1.14589e-29
1.14309e-29
1.1638e-29
1.16371e-29
1.16354e-29
1.16327e-29
1.1629e-29
1.16242e-29
1.16183e-29
1.16111e-29
1.16024e-29
1.15924e-29
1.15808e-29
1.15677e-29
1.15532e-29
1.15373e-29
1.15202e-29
1.15021e-29
1.14834e-29
1.14643e-29
1.14452e-29
1.14265e-29
1.15647e-29
1.15641e-29
1.15629e-29
1.15611e-29
1.15586e-29
1.15554e-29
1.15513e-29
1.15465e-29
1.15407e-29
1.15339e-29
1.15261e-29
1.15174e-29
1.15077e-29
1.14971e-29
1.14857e-29
1.14737e-29
1.14612e-29
1.14486e-29
1.14359e-29
1.14235e-29
1.15153e-29
1.15149e-29
1.15141e-29
1.15128e-29
1.15111e-29
1.15089e-29
1.15062e-29
1.15029e-29
1.14991e-29
1.14945e-29
1.14894e-29
1.14835e-29
1.14771e-29
1.14701e-29
1.14625e-29
1.14546e-29
1.14464e-29
1.1438e-29
1.14296e-29
1.14215e-29
1.1482e-29
1.14818e-29
1.14812e-29
1.14804e-29
1.14792e-29
1.14778e-29
1.1476e-29
1.14738e-29
1.14712e-29
1.14682e-29
1.14647e-29
1.14609e-29
1.14566e-29
1.1452e-29
1.14471e-29
1.14418e-29
1.14364e-29
1.14309e-29
1.14255e-29
1.14201e-29
1.14598e-29
1.14596e-29
1.14593e-29
1.14587e-29
1.1458e-29
1.1457e-29
1.14558e-29
1.14543e-29
1.14526e-29
1.14506e-29
1.14484e-29
1.14458e-29
1.1443e-29
1.144e-29
1.14368e-29
1.14334e-29
1.14298e-29
1.14263e-29
1.14227e-29
1.14192e-29
1.14451e-29
1.14449e-29
1.14447e-29
1.14443e-29
1.14438e-29
1.14432e-29
1.14424e-29
1.14414e-29
1.14403e-29
1.1439e-29
1.14375e-29
1.14359e-29
1.14341e-29
1.14321e-29
1.143e-29
1.14278e-29
1.14255e-29
1.14232e-29
1.14209e-29
1.14186e-29
1.14353e-29
1.14352e-29
1.14351e-29
1.14348e-29
1.14345e-29
1.14341e-29
1.14336e-29
1.14329e-29
1.14322e-29
1.14314e-29
1.14304e-29
1.14293e-29
1.14282e-29
1.14269e-29
1.14255e-29
1.14241e-29
1.14226e-29
1.14212e-29
1.14197e-29
1.14182e-29
1.14289e-29
1.14289e-29
1.14288e-29
1.14286e-29
1.14284e-29
1.14281e-29
1.14278e-29
1.14274e-29
1.14269e-29
1.14264e-29
1.14258e-29
1.14251e-29
1.14243e-29
1.14235e-29
1.14226e-29
1.14217e-29
1.14208e-29
1.14198e-29
1.14189e-29
1.1418e-29
1.14248e-29
1.14248e-29
1.14247e-29
1.14246e-29
1.14245e-29
1.14243e-29
1.14241e-29
1.14238e-29
1.14235e-29
1.14231e-29
1.14227e-29
1.14223e-29
1.14218e-29
1.14213e-29
1.14208e-29
1.14202e-29
1.14196e-29
1.1419e-29
1.14184e-29
1.14178e-29
1.14221e-29
1.14221e-29
1.14221e-29
1.1422e-29
1.14219e-29
1.14218e-29
1.14216e-29
1.14215e-29
1.14213e-29
1.14211e-29
1.14208e-29
1.14205e-29
1.14202e-29
1.14199e-29
1.14196e-29
1.14192e-29
1.14188e-29
1.14184e-29
1.14181e-29
1.14177e-29
1.14204e-29
1.14204e-29
1.14204e-29
1.14203e-29
1.14203e-29
1.14202e-29
1.14201e-29
1.142e-29
1.14199e-29
1.14197e-29
1.14196e-29
1.14194e-29
1.14192e-29
1.1419e-29
1.14188e-29
1.14186e-29
1.14183e-29
1.14181e-29
1.14179e-29
1.14176e-29
1.14193e-29
1.14193e-29
1.14193e-29
1.14193e-29
1.14192e-29
1.14192e-29
1.14191e-29
1.14191e-29
1.1419e-29
1.14189e-29
1.14188e-29
1.14187e-29
1.14186e-29
1.14184e-29
1.14183e-29
1.14182e-29
1.1418e-29
1.14179e-29
1.14177e-29
1.14176e-29
1.14186e-29
1.14186e-29
1.14186e-29
1.14186e-29
1.14186e-29
1.14185e-29
1.14185e-29
1.14185e-29
1.14184e-29
1.14184e-29
1.14183e-29
1.14182e-29
1.14182e-29
1.14181e-29
1.1418e-29
1.14179e-29
1.14178e-29
1.14177e-29
1.14176e-29
1.14176e-29
1.14182e-29
1.14182e-29
1.14182e-29
1.14182e-29
1.14182e-29
1.14181e-29
1.14181e-29
1.14181e-29
1.14181e-29
1.1418e-29
1.1418e-29
1.1418e-29
1.14179e-29
1.14179e-29
1.14178e-29
1.14178e-29
1.14177e-29
1.14177e-29
1.14176e-29
1.14175e-29
1.14179e-29
1.14179e-29
1.14179e-29
1.14179e-29
1.14179e-29
1.14179e-29
1.14179e-29
1.14179e-29
1.14179e-29
1.14178e-29
1.14178e-29
1.14178e-29
1.14178e-29
1.14177e-29
1.14177e-29
1.14177e-29
1.14176e-29
1.14176e-29
1.14176e-29
1.14175e-29
1.14178e-29
1.14178e-29
1.14178e-29
1.14178e-29
1.14178e-29
1.14178e-29
1.14177e-29
1.14177e-29
1.14177e-29
1.14177e-29
1.14177e-29
1.14177e-29
1.14177e-29
1.14176e-29
1.14176e-29
1.14176e-29
1.14176e-29
1.14176e-29
1.14175e-29
1.14175e-29
1.14177e-29
1.14177e-29
1.14177e-29
1.14177e-29
1.14177e-29
1.14177e-29
1.14177e-29
1.14176e-29
1.14176e-29
1.14176e-29
1.14176e-29
1.14176e-29
1.14176e-29
1.14176e-29
1.14176e-29
1.14176e-29
1.14176e-29
1.14175e-29
1.14175e-29
1.14175e-29
1.14176e-29
1.14176e-29
1.14176e-29
1.14176e-29
1.14176e-29
1.14176e-29
1.14176e-29
1.14176e-29
1.14176e-29
1.14176e-29
1.14176e-29
1.14176e-29
1.14176e-29
1.14176e-29
1.14176e-29
1.14176e-29
1.14175e-29
1.14175e-29
1.14175e-29
1.14175e-29
1.14176e-29
1.14176e-29
1.14176e-29
1.14176e-29
1.14176e-29
1.14176e-29
1.14176e-29
1.14176e-29
1.14176e-29
1.14176e-29
1.14176e-29
1.14176e-29
1.14176e-29
1.14175e-29
1.14175e-29
1.14175e-29
1.14175e-29
1.14175e-29
1.14175e-29
1.14175e-29
1.14176e-29
1.14176e-29
1.14176e-29
1.14176e-29
1.14176e-29
1.14176e-29
1.14176e-29
1.14176e-29
1.14176e-29
1.14176e-29
1.14176e-29
1.14175e-29
1.14175e-29
1.14175e-29
1.14175e-29
1.14175e-29
1.14175e-29
1.14175e-29
1.14175e-29
1.14175e-29
)
;

boundaryField
{
    topWall
    {
        type            zeroGradient;
    }
    bottomWall
    {
        type            zeroGradient;
    }
    sideWallL
    {
        type            symmetry;
    }
    sideWallR
    {
        type            zeroGradient;
    }
    frontAndBack
    {
        type            empty;
    }
}


// ************************************************************************* //
