/*--------------------------------*- C++ -*----------------------------------*\
  =========                 |
  \\      /  F ield         | OpenFOAM: The Open Source CFD Toolbox
   \\    /   O peration     | Website:  https://openfoam.org
    \\  /    A nd           | Version:  7
     \\/     M anipulation  |
\*---------------------------------------------------------------------------*/
FoamFile
{
    version     2.0;
    format      ascii;
    class       volScalarField;
    location    "19";
    object      rhot1;
}
// * * * * * * * * * * * * * * * * * * * * * * * * * * * * * * * * * * * * * //

dimensions      [1 -3 0 0 0 0 0];

internalField   nonuniform List<scalar> 
900
(
5.83196e-05
5.82899e-05
5.82273e-05
5.81258e-05
5.7975e-05
5.77594e-05
5.74568e-05
5.70352e-05
5.64487e-05
5.5632e-05
5.44903e-05
5.28853e-05
5.06132e-05
4.73692e-05
4.2697e-05
3.593e-05
2.62485e-05
1.35931e-05
2.48197e-06
6.47722e-09
3.76701e-06
3.76069e-06
3.74747e-06
3.72608e-06
3.69449e-06
3.64975e-06
3.58767e-06
3.50257e-06
3.38685e-06
3.23062e-06
3.02149e-06
2.745e-06
2.38661e-06
1.93725e-06
1.40575e-06
8.40798e-07
3.51874e-07
7.19021e-08
3.03578e-09
3.17637e-12
2.67517e-07
2.66724e-07
2.65067e-07
2.624e-07
2.58491e-07
2.53012e-07
2.4552e-07
2.35448e-07
2.22109e-07
2.04735e-07
1.82591e-07
1.55227e-07
1.22937e-07
8.74536e-08
5.26278e-08
2.41911e-08
7.0972e-09
9.6322e-10
3.46651e-11
1.73239e-13
2.16999e-08
2.16074e-08
2.1415e-08
2.1107e-08
2.06593e-08
2.00388e-08
1.92035e-08
1.81036e-08
1.66864e-08
1.49064e-08
1.27446e-08
1.02385e-08
7.52141e-09
4.85022e-09
2.5797e-09
1.02842e-09
2.65672e-10
3.60574e-11
2.01816e-12
5.00135e-14
2.08033e-09
2.06903e-09
2.0456e-09
2.0083e-09
1.95454e-09
1.88089e-09
1.78323e-09
1.65717e-09
1.49884e-09
1.30641e-09
1.08227e-09
8.35764e-10
5.85382e-10
3.57785e-10
1.80759e-10
7.00816e-11
1.89435e-11
3.21616e-12
3.28099e-13
2.68696e-14
2.42425e-10
2.40885e-10
2.37698e-10
2.32653e-10
2.2544e-10
2.1566e-10
2.02869e-10
1.86639e-10
1.66691e-10
1.43077e-10
1.16431e-10
8.81974e-11
6.06888e-11
3.67317e-11
1.87665e-11
7.70301e-12
2.41312e-12
5.59269e-13
1.01087e-13
1.89224e-14
3.50592e-11
3.48156e-11
3.43131e-11
3.35213e-11
3.23968e-11
3.08859e-11
2.89315e-11
2.64854e-11
2.35268e-11
2.00889e-11
1.62879e-11
1.23439e-11
8.57265e-12
5.32587e-12
2.87951e-12
1.31799e-12
5.01286e-13
1.60233e-13
4.67935e-14
1.52757e-14
6.37402e-12
6.32837e-12
6.23442e-12
6.08697e-12
5.87868e-12
5.60072e-12
5.24417e-12
4.80212e-12
4.27299e-12
3.66461e-12
2.99836e-12
2.31152e-12
1.6547e-12
1.0823e-12
6.36717e-13
3.33186e-13
1.5538e-13
6.65166e-14
2.81894e-14
1.33138e-14
1.46517e-12
1.45493e-12
1.43389e-12
1.40098e-12
1.35467e-12
1.29318e-12
1.21471e-12
1.11798e-12
1.00277e-12
8.70791e-13
7.26351e-13
5.76735e-13
4.31704e-13
3.01807e-13
1.95733e-13
1.177e-13
6.63936e-14
3.62288e-14
2.01537e-14
1.21525e-14
4.25752e-13
4.23005e-13
4.17367e-13
4.08564e-13
3.9621e-13
3.79853e-13
3.59042e-13
3.33443e-13
3.02983e-13
2.68029e-13
2.29552e-13
1.89209e-13
1.49249e-13
1.12188e-13
8.02751e-14
5.493e-14
3.64189e-14
2.39467e-14
1.61077e-14
1.1422e-14
1.556e-13
1.54725e-13
1.5293e-13
1.50132e-13
1.46212e-13
1.41028e-13
1.34439e-13
1.26332e-13
1.16666e-13
1.05517e-13
9.31255e-14
7.99232e-14
6.65184e-14
5.36251e-14
4.19397e-14
3.19963e-14
2.40588e-14
1.8096e-14
1.38478e-14
1.09436e-14
7.07074e-14
7.03811e-14
6.97125e-14
6.86708e-14
6.72123e-14
6.52847e-14
6.28339e-14
5.98137e-14
5.61989e-14
5.2001e-14
4.72832e-14
4.21713e-14
3.68529e-14
3.15614e-14
2.65442e-14
2.202e-14
1.81411e-14
1.49719e-14
1.24922e-14
1.06217e-14
3.9116e-14
3.89763e-14
3.869e-14
3.82442e-14
3.76202e-14
3.67955e-14
3.5746e-14
3.44498e-14
3.28917e-14
3.10696e-14
2.89996e-14
2.67214e-14
2.42992e-14
2.18185e-14
1.9377e-14
1.70711e-14
1.49817e-14
1.31628e-14
1.16377e-14
1.04011e-14
2.55281e-14
2.54607e-14
2.53227e-14
2.51079e-14
2.48073e-14
2.441e-14
2.39039e-14
2.32775e-14
2.25216e-14
2.1632e-14
2.06121e-14
1.94747e-14
1.82436e-14
1.69531e-14
1.56453e-14
1.43654e-14
1.31564e-14
1.20533e-14
1.10801e-14
1.0248e-14
1.89425e-14
1.89067e-14
1.88333e-14
1.87193e-14
1.85597e-14
1.83487e-14
1.80799e-14
1.77466e-14
1.73432e-14
1.68662e-14
1.63153e-14
1.56946e-14
1.50135e-14
1.42868e-14
1.35339e-14
1.27774e-14
1.20404e-14
1.13445e-14
1.07073e-14
1.01409e-14
1.54321e-14
1.54115e-14
1.53694e-14
1.53039e-14
1.52124e-14
1.50914e-14
1.49373e-14
1.4746e-14
1.45142e-14
1.42391e-14
1.39197e-14
1.35573e-14
1.31556e-14
1.27214e-14
1.22643e-14
1.17962e-14
1.133e-14
1.08786e-14
1.0454e-14
1.00657e-14
1.3418e-14
1.34055e-14
1.33798e-14
1.33399e-14
1.32842e-14
1.32106e-14
1.31169e-14
1.30007e-14
1.28596e-14
1.2692e-14
1.24968e-14
1.22742e-14
1.20258e-14
1.1755e-14
1.14667e-14
1.11674e-14
1.08646e-14
1.05662e-14
1.028e-14
1.00128e-14
1.21965e-14
1.21884e-14
1.21721e-14
1.21466e-14
1.21112e-14
1.20644e-14
1.20049e-14
1.19312e-14
1.18418e-14
1.17355e-14
1.16115e-14
1.14697e-14
1.13108e-14
1.11366e-14
1.09498e-14
1.0754e-14
1.05538e-14
1.0354e-14
1.01597e-14
9.97549e-15
1.14246e-14
1.14193e-14
1.14086e-14
1.13918e-14
1.13685e-14
1.13378e-14
1.12989e-14
1.12507e-14
1.11923e-14
1.11229e-14
1.10419e-14
1.09492e-14
1.08452e-14
1.07307e-14
1.06074e-14
1.04774e-14
1.03434e-14
1.02086e-14
1.00762e-14
9.94927e-15
1.09224e-14
1.09188e-14
1.09116e-14
1.09003e-14
1.08847e-14
1.08641e-14
1.0838e-14
1.08058e-14
1.07669e-14
1.07207e-14
1.06669e-14
1.06052e-14
1.0536e-14
1.04597e-14
1.03773e-14
1.02901e-14
1.01998e-14
1.01085e-14
1.00181e-14
9.93088e-15
1.05889e-14
1.05864e-14
1.05815e-14
1.05738e-14
1.05631e-14
1.05491e-14
1.05314e-14
1.05096e-14
1.04833e-14
1.04522e-14
1.0416e-14
1.03745e-14
1.0328e-14
1.02767e-14
1.02213e-14
1.01625e-14
1.01014e-14
1.00394e-14
9.97782e-15
9.91801e-15
1.03643e-14
1.03627e-14
1.03592e-14
1.03539e-14
1.03466e-14
1.0337e-14
1.03249e-14
1.031e-14
1.02921e-14
1.0271e-14
1.02464e-14
1.02184e-14
1.0187e-14
1.01523e-14
1.01149e-14
1.00752e-14
1.00339e-14
9.9918e-15
9.94989e-15
9.90905e-15
1.02119e-14
1.02108e-14
1.02084e-14
1.02047e-14
1.01997e-14
1.01931e-14
1.01848e-14
1.01746e-14
1.01623e-14
1.01479e-14
1.01313e-14
1.01122e-14
1.0091e-14
1.00676e-14
1.00422e-14
1.00154e-14
9.98748e-15
9.95902e-15
9.9306e-15
9.90284e-15
1.0108e-14
1.01072e-14
1.01056e-14
1.0103e-14
1.00995e-14
1.0095e-14
1.00893e-14
1.00823e-14
1.0074e-14
1.00642e-14
1.00528e-14
1.00399e-14
1.00255e-14
1.00097e-14
9.99264e-15
9.97454e-15
9.95572e-15
9.93652e-15
9.91733e-15
9.89856e-15
1.00371e-14
1.00366e-14
1.00354e-14
1.00337e-14
1.00313e-14
1.00281e-14
1.00242e-14
1.00195e-14
1.00138e-14
1.00071e-14
9.99941e-15
9.99069e-15
9.98097e-15
9.97032e-15
9.95883e-15
9.94667e-15
9.93403e-15
9.92113e-15
9.90824e-15
9.89562e-15
9.98877e-15
9.98839e-15
9.9876e-15
9.9864e-15
9.98475e-15
9.98261e-15
9.97994e-15
9.9767e-15
9.97283e-15
9.96831e-15
9.96312e-15
9.95725e-15
9.95071e-15
9.94356e-15
9.93587e-15
9.92773e-15
9.91928e-15
9.91067e-15
9.90206e-15
9.89362e-15
9.95591e-15
9.95565e-15
9.95511e-15
9.95429e-15
9.95317e-15
9.95171e-15
9.9499e-15
9.9477e-15
9.94509e-15
9.94204e-15
9.93855e-15
9.93461e-15
9.93024e-15
9.92547e-15
9.92034e-15
9.91493e-15
9.90931e-15
9.90359e-15
9.89787e-15
9.89226e-15
9.93367e-15
9.93349e-15
9.93313e-15
9.93257e-15
9.93181e-15
9.93082e-15
9.9296e-15
9.92812e-15
9.92636e-15
9.92433e-15
9.92199e-15
9.91937e-15
9.91646e-15
9.91329e-15
9.9099e-15
9.90631e-15
9.9026e-15
9.89882e-15
9.89505e-15
9.89134e-15
9.9187e-15
9.91858e-15
9.91833e-15
9.91796e-15
9.91744e-15
9.91678e-15
9.91596e-15
9.91497e-15
9.9138e-15
9.91244e-15
9.9109e-15
9.90916e-15
9.90724e-15
9.90515e-15
9.90291e-15
9.90055e-15
9.89812e-15
9.89564e-15
9.89316e-15
9.89073e-15
9.90868e-15
9.9086e-15
9.90843e-15
9.90818e-15
9.90784e-15
9.9074e-15
9.90685e-15
9.90619e-15
9.90542e-15
9.90452e-15
9.9035e-15
9.90236e-15
9.9011e-15
9.89973e-15
9.89827e-15
9.89673e-15
9.89514e-15
9.89352e-15
9.89191e-15
9.89033e-15
9.90202e-15
9.90196e-15
9.90185e-15
9.90169e-15
9.90146e-15
9.90117e-15
9.90081e-15
9.90037e-15
9.89987e-15
9.89928e-15
9.89861e-15
9.89786e-15
9.89704e-15
9.89615e-15
9.8952e-15
9.8942e-15
9.89317e-15
9.89212e-15
9.89108e-15
9.89006e-15
9.89762e-15
9.89758e-15
9.89751e-15
9.8974e-15
9.89725e-15
9.89706e-15
9.89682e-15
9.89654e-15
9.89621e-15
9.89583e-15
9.89539e-15
9.89491e-15
9.89438e-15
9.8938e-15
9.89319e-15
9.89255e-15
9.89188e-15
9.89121e-15
9.89054e-15
9.88988e-15
9.89473e-15
9.89471e-15
9.89466e-15
9.89459e-15
9.8945e-15
9.89437e-15
9.89422e-15
9.89403e-15
9.89382e-15
9.89357e-15
9.89329e-15
9.89298e-15
9.89264e-15
9.89227e-15
9.89188e-15
9.89147e-15
9.89104e-15
9.89062e-15
9.89019e-15
9.88977e-15
9.89286e-15
9.89284e-15
9.89281e-15
9.89277e-15
9.8927e-15
9.89262e-15
9.89253e-15
9.89241e-15
9.89227e-15
9.89211e-15
9.89193e-15
9.89173e-15
9.89152e-15
9.89128e-15
9.89103e-15
9.89077e-15
9.8905e-15
9.89023e-15
9.88996e-15
9.88969e-15
9.89165e-15
9.89164e-15
9.89162e-15
9.89159e-15
9.89155e-15
9.8915e-15
9.89144e-15
9.89136e-15
9.89127e-15
9.89117e-15
9.89106e-15
9.89093e-15
9.89079e-15
9.89065e-15
9.89049e-15
9.89032e-15
9.89016e-15
9.88998e-15
9.88981e-15
9.88965e-15
9.89087e-15
9.89087e-15
9.89085e-15
9.89084e-15
9.89081e-15
9.89078e-15
9.89074e-15
9.89069e-15
9.89063e-15
9.89057e-15
9.8905e-15
9.89042e-15
9.89033e-15
9.89024e-15
9.89014e-15
9.89004e-15
9.88993e-15
9.88983e-15
9.88972e-15
9.88962e-15
9.89038e-15
9.89038e-15
9.89037e-15
9.89036e-15
9.89034e-15
9.89032e-15
9.89029e-15
9.89027e-15
9.89023e-15
9.89019e-15
9.89015e-15
9.8901e-15
9.89004e-15
9.88999e-15
9.88992e-15
9.88986e-15
9.88979e-15
9.88973e-15
9.88966e-15
9.8896e-15
9.89007e-15
9.89007e-15
9.89006e-15
9.89005e-15
9.89004e-15
9.89003e-15
9.89002e-15
9.89e-15
9.88998e-15
9.88995e-15
9.88992e-15
9.88989e-15
9.88986e-15
9.88982e-15
9.88979e-15
9.88975e-15
9.88971e-15
9.88967e-15
9.88963e-15
9.88959e-15
9.88988e-15
9.88987e-15
9.88987e-15
9.88987e-15
9.88986e-15
9.88985e-15
9.88984e-15
9.88983e-15
9.88982e-15
9.8898e-15
9.88979e-15
9.88977e-15
9.88975e-15
9.88972e-15
9.8897e-15
9.88968e-15
9.88965e-15
9.88963e-15
9.8896e-15
9.88958e-15
9.88975e-15
9.88975e-15
9.88975e-15
9.88975e-15
9.88975e-15
9.88974e-15
9.88973e-15
9.88973e-15
9.88972e-15
9.88971e-15
9.8897e-15
9.88969e-15
9.88968e-15
9.88966e-15
9.88965e-15
9.88963e-15
9.88962e-15
9.8896e-15
9.88959e-15
9.88957e-15
9.88968e-15
9.88968e-15
9.88968e-15
9.88968e-15
9.88968e-15
9.88967e-15
9.88967e-15
9.88966e-15
9.88966e-15
9.88965e-15
9.88965e-15
9.88964e-15
9.88963e-15
9.88962e-15
9.88962e-15
9.88961e-15
9.8896e-15
9.88959e-15
9.88958e-15
9.88957e-15
9.88964e-15
9.88964e-15
9.88964e-15
9.88963e-15
9.88963e-15
9.88963e-15
9.88963e-15
9.88963e-15
9.88962e-15
9.88962e-15
9.88962e-15
9.88961e-15
9.88961e-15
9.8896e-15
9.8896e-15
9.88959e-15
9.88959e-15
9.88958e-15
9.88957e-15
9.88957e-15
9.88961e-15
9.88961e-15
9.88961e-15
9.88961e-15
9.88961e-15
9.88961e-15
9.88961e-15
9.8896e-15
9.8896e-15
9.8896e-15
9.8896e-15
9.88959e-15
9.88959e-15
9.88959e-15
9.88959e-15
9.88958e-15
9.88958e-15
9.88958e-15
9.88957e-15
9.88957e-15
9.8896e-15
9.8896e-15
9.88959e-15
9.88959e-15
9.88959e-15
9.88959e-15
9.88959e-15
9.88959e-15
9.88959e-15
9.88959e-15
9.88959e-15
9.88959e-15
9.88958e-15
9.88958e-15
9.88958e-15
9.88958e-15
9.88957e-15
9.88957e-15
9.88957e-15
9.88957e-15
9.88959e-15
9.88959e-15
9.88959e-15
9.88959e-15
9.88959e-15
9.88959e-15
9.88959e-15
9.88959e-15
9.88958e-15
9.88958e-15
9.88958e-15
9.88958e-15
9.88958e-15
9.88958e-15
9.88958e-15
9.88957e-15
9.88957e-15
9.88957e-15
9.88957e-15
9.88957e-15
)
;

boundaryField
{
    topWall
    {
        type            zeroGradient;
    }
    bottomWall
    {
        type            zeroGradient;
    }
    sideWallL
    {
        type            symmetry;
    }
    sideWallR
    {
        type            calculated;
        value           uniform 0;
    }
    frontAndBack
    {
        type            empty;
    }
}


// ************************************************************************* //
