/*--------------------------------*- C++ -*----------------------------------*\
  =========                 |
  \\      /  F ield         | OpenFOAM: The Open Source CFD Toolbox
   \\    /   O peration     | Website:  https://openfoam.org
    \\  /    A nd           | Version:  7
     \\/     M anipulation  |
\*---------------------------------------------------------------------------*/
FoamFile
{
    version     2.0;
    format      ascii;
    class       volScalarField;
    location    "19";
    object      T;
}
// * * * * * * * * * * * * * * * * * * * * * * * * * * * * * * * * * * * * * //

dimensions      [0 0 0 1 0 0 0];

internalField   nonuniform List<scalar> 
900
(
446.418
446.412
446.398
446.376
446.344
446.298
446.233
446.143
446.018
445.843
445.596
445.243
444.729
443.96
442.766
440.807
437.3
430.149
412.708
360.992
417.924
417.906
417.867
417.804
417.711
417.579
417.394
417.138
416.782
416.286
415.591
414.603
413.181
411.089
407.928
402.981
394.881
380.916
355.683
309.704
393.524
393.495
393.434
393.335
393.189
392.983
392.695
392.298
391.75
390.992
389.938
388.461
386.371
383.371
378.998
372.508
362.706
347.733
325.05
292.558
372.713
372.675
372.596
372.468
372.28
372.015
371.648
371.143
370.453
369.507
368.21
366.421
363.942
360.484
355.632
348.792
339.158
325.747
307.688
285.119
355.042
354.998
354.906
354.757
354.539
354.233
353.812
353.238
352.46
351.406
349.981
348.052
345.437
341.895
337.101
330.651
322.077
310.948
297.117
281.161
340.114
340.066
339.965
339.804
339.569
339.24
338.791
338.183
337.368
336.279
334.828
332.9
330.345
326.976
322.568
316.867
309.636
300.733
290.262
278.753
327.572
327.522
327.418
327.252
327.011
326.676
326.221
325.613
324.805
323.739
322.34
320.515
318.148
315.105
311.238
306.403
300.496
293.506
285.596
277.164
317.096
317.046
316.943
316.779
316.543
316.215
315.775
315.191
314.423
313.423
312.131
310.473
308.366
305.717
302.435
298.446
293.715
288.285
282.306
276.062
308.401
308.353
308.255
308.099
307.874
307.565
307.153
306.611
305.907
305.001
303.846
302.388
300.568
298.325
295.607
292.38
288.643
284.452
279.93
275.273
301.231
301.187
301.096
300.951
300.744
300.462
300.087
299.599
298.971
298.173
297.169
295.92
294.385
292.528
290.318
287.745
284.823
281.604
278.184
274.696
295.361
295.321
295.238
295.107
294.921
294.67
294.338
293.909
293.363
292.677
291.824
290.776
289.508
287.996
286.227
284.199
281.932
279.471
276.885
274.27
290.587
290.552
290.479
290.364
290.201
289.981
289.694
289.326
288.861
288.283
287.572
286.71
285.679
284.467
283.067
281.485
279.739
277.864
275.913
273.951
286.735
286.704
286.641
286.542
286.402
286.214
285.97
285.66
285.272
284.794
284.212
283.513
282.687
281.727
280.632
279.408
278.072
276.65
275.182
273.711
283.649
283.623
283.569
283.485
283.367
283.21
283.007
282.75
282.432
282.042
281.572
281.014
280.361
279.61
278.761
277.822
276.805
275.732
274.63
273.531
281.196
281.174
281.129
281.059
280.961
280.832
280.665
280.456
280.199
279.887
279.513
279.073
278.562
277.98
277.328
276.613
275.844
275.038
274.215
273.395
279.261
279.243
279.206
279.149
279.069
278.964
278.83
278.662
278.457
278.21
277.916
277.573
277.178
276.732
276.235
275.694
275.117
274.515
273.902
273.293
277.747
277.732
277.703
277.657
277.593
277.509
277.402
277.269
277.108
276.914
276.686
276.422
276.12
275.78
275.405
274.999
274.568
274.12
273.666
273.217
276.572
276.56
276.536
276.5
276.449
276.383
276.299
276.195
276.07
275.921
275.746
275.544
275.315
275.059
274.778
274.475
274.155
273.824
273.49
273.159
275.667
275.658
275.639
275.61
275.571
275.519
275.454
275.374
275.278
275.164
275.031
274.879
274.706
274.515
274.306
274.082
273.846
273.603
273.358
273.116
274.976
274.969
274.954
274.932
274.902
274.862
274.812
274.751
274.678
274.592
274.492
274.378
274.25
274.108
273.954
273.789
273.617
273.439
273.261
273.085
274.452
274.447
274.436
274.419
274.396
274.366
274.328
274.282
274.227
274.163
274.088
274.004
273.909
273.805
273.692
273.572
273.446
273.318
273.188
273.061
274.059
274.055
274.047
274.034
274.017
273.994
273.966
273.931
273.89
273.843
273.788
273.726
273.657
273.581
273.499
273.412
273.321
273.228
273.135
273.044
273.766
273.763
273.757
273.748
273.735
273.718
273.697
273.671
273.641
273.606
273.566
273.521
273.471
273.416
273.357
273.294
273.229
273.163
273.097
273.031
273.55
273.548
273.543
273.536
273.527
273.514
273.499
273.48
273.459
273.433
273.404
273.371
273.335
273.296
273.254
273.209
273.163
273.116
273.069
273.022
273.392
273.39
273.387
273.382
273.375
273.366
273.354
273.341
273.325
273.307
273.286
273.263
273.237
273.209
273.179
273.147
273.115
273.081
273.048
273.016
273.277
273.276
273.273
273.269
273.264
273.258
273.25
273.24
273.229
273.216
273.201
273.185
273.166
273.147
273.125
273.103
273.08
273.057
273.034
273.011
273.194
273.193
273.191
273.189
273.185
273.18
273.175
273.168
273.16
273.151
273.14
273.129
273.116
273.102
273.087
273.072
273.056
273.04
273.023
273.008
273.135
273.134
273.133
273.131
273.128
273.125
273.121
273.116
273.111
273.104
273.097
273.089
273.08
273.07
273.06
273.049
273.038
273.027
273.016
273.005
273.093
273.092
273.092
273.09
273.089
273.086
273.083
273.08
273.076
273.072
273.067
273.061
273.055
273.048
273.041
273.034
273.026
273.019
273.011
273.004
273.064
273.063
273.063
273.062
273.06
273.059
273.057
273.055
273.052
273.049
273.045
273.042
273.037
273.033
273.028
273.023
273.018
273.013
273.007
273.002
273.043
273.043
273.042
273.042
273.041
273.04
273.039
273.037
273.035
273.033
273.031
273.028
273.025
273.022
273.019
273.016
273.012
273.009
273.005
273.002
273.029
273.029
273.029
273.028
273.028
273.027
273.026
273.025
273.024
273.022
273.021
273.019
273.017
273.015
273.013
273.01
273.008
273.006
273.003
273.001
273.019
273.019
273.019
273.019
273.018
273.018
273.017
273.017
273.016
273.015
273.014
273.013
273.011
273.01
273.008
273.007
273.005
273.004
273.002
273.001
273.013
273.013
273.013
273.012
273.012
273.012
273.011
273.011
273.01
273.01
273.009
273.008
273.007
273.006
273.006
273.005
273.004
273.002
273.001
273
273.008
273.008
273.008
273.008
273.008
273.008
273.007
273.007
273.007
273.006
273.006
273.005
273.005
273.004
273.004
273.003
273.002
273.002
273.001
273
273.005
273.005
273.005
273.005
273.005
273.005
273.005
273.005
273.004
273.004
273.004
273.004
273.003
273.003
273.002
273.002
273.001
273.001
273.001
273
273.004
273.004
273.003
273.003
273.003
273.003
273.003
273.003
273.003
273.003
273.002
273.002
273.002
273.002
273.002
273.001
273.001
273.001
273
273
273.002
273.002
273.002
273.002
273.002
273.002
273.002
273.002
273.002
273.002
273.002
273.001
273.001
273.001
273.001
273.001
273.001
273
273
273
273.001
273.001
273.001
273.001
273.001
273.001
273.001
273.001
273.001
273.001
273.001
273.001
273.001
273.001
273.001
273
273
273
273
273
273.001
273.001
273.001
273.001
273.001
273.001
273.001
273.001
273.001
273.001
273.001
273.001
273.001
273
273
273
273
273
273
273
273.001
273.001
273.001
273.001
273.001
273.001
273.001
273
273
273
273
273
273
273
273
273
273
273
273
273
273
273
273
273
273
273
273
273
273
273
273
273
273
273
273
273
273
273
273
273
273
273
273
273
273
273
273
273
273
273
273
273
273
273
273
273
273
273
273
273
273
273
273
273
273
273
273
273
273
273
273
273
273
273
273
273
273
273
273
273
273
273
273
273
273
273
273
273
273
273
273
273
273
273
273
273
273
273
273
273
)
;

boundaryField
{
    topWall
    {
        type            zeroGradient;
    }
    bottomWall
    {
        type            codedFixedValue;
        value           uniform 463;
        name            heating;
        code            #{
            const scalar t = this->db().time().value();
            const scalar Ttemp = 273 + 10*t;
            operator==(Ttemp);
        #};
    }
    sideWallL
    {
        type            symmetry;
    }
    sideWallR
    {
        type            fixedValue;
        value           uniform 273;
    }
    frontAndBack
    {
        type            empty;
    }
}


// ************************************************************************* //
