/*--------------------------------*- C++ -*----------------------------------*\
  =========                 |
  \\      /  F ield         | OpenFOAM: The Open Source CFD Toolbox
   \\    /   O peration     | Website:  https://openfoam.org
    \\  /    A nd           | Version:  7
     \\/     M anipulation  |
\*---------------------------------------------------------------------------*/
FoamFile
{
    version     2.0;
    format      ascii;
    class       volScalarField;
    location    "34";
    object      gradTx;
}
// * * * * * * * * * * * * * * * * * * * * * * * * * * * * * * * * * * * * * //

dimensions      [0 -1 0 1 0 0 0];

internalField   nonuniform List<scalar> 
900
(
-64.3744
-196.843
-340.787
-504.964
-699.96
-939.309
-1241.12
-1630.58
-2144
-2835.76
-3790.98
-5150.26
-7163.42
-10319.5
-15702.8
-26090.7
-49687.6
-114081
-318682
-1.00068e+06
-180.839
-552.929
-957.134
-1417.94
-1964.91
-2635.8
-3480.96
-4570.21
-6003.65
-7929.83
-10577.4
-14313.6
-19757.7
-28016.3
-41196.6
-63572.7
-104180
-181499
-324106
-527673
-283.343
-866.01
-1497.92
-2216.42
-3066.27
-4104.09
-5404.51
-7069.46
-9242.38
-12130.9
-16044.2
-21455.6
-29111.1
-40216.1
-56748
-81919.2
-120582
-178342
-254937
-322866
-371.74
-1135.44
-1961.31
-2896.09
-3995.09
-5327.06
-6980.85
-9074.73
-11770.1
-15291.7
-19957.6
-26224.1
-34749.6
-46476.4
-62709.1
-85086.6
-115150
-152781
-192379
-217161
-440.941
-1345.66
-2320.43
-3417.29
-4696.84
-6232.78
-8117.89
-10471.8
-13451.5
-17265.4
-22191
-28596.8
-36961.2
-47877.1
-62000.7
-79861.2
-101374
-124852
-145562
-155045
-489.585
-1492.63
-2568.73
-3771.4
-5161.8
-6812.47
-8811.92
-11270.1
-14324.8
-18149.2
-22957.9
-29010.6
-36603.3
-46035.2
-57521.2
-71009.9
-85859.3
-100381
-111472
-115011
-518.167
-1578.06
-2709.82
-3965.33
-5402.61
-7088.6
-9102.15
-11537.1
-14505.3
-18138.2
-22585.6
-28008.5
-34558.7
-42337
-51315.8
-61213.1
-71322.8
-80351.9
-86421.6
-87497.8
-528.392
-1607.37
-2753.84
-4015.74
-5445.52
-7101.83
-9051.16
-11369
-14140.1
-17456.5
-21412.7
-26093.6
-31553.4
-37779
-44635.7
-51794.6
-58658.4
-64328.8
-67694.1
-67720.7
-522.78
-1588.46
-2715.09
-3945.3
-5324.58
-6902.2
-8731.71
-10870.7
-13379.6
-16317.8
-19737.5
-23671.7
-28116.3
-33003.8
-38169.8
-43316.3
-47988.2
-51586.4
-53452.8
-53044.5
-504.3
-1530.54
-2610.03
-3779.41
-5076.81
-6542.15
-8216.85
-10142.9
-12360.5
-14904.5
-17797.7
-21041
-24600.7
-28390.5
-32253.9
-35948.2
-39143.4
-41446.4
-42463.4
-41899.9
-476.045
-1443.15
-2455.45
-3543.52
-4738.38
-6071.35
-7573.33
-9273.46
-11196.8
-13360.5
-15768.8
-18405.3
-21224.2
-24140.1
-27018.7
-29673.4
-31870.6
-33353.2
-33881.9
-33292.8
-440.983
-1335.41
-2267.2
-3261.21
-4342.04
-5533.53
-6857.96
-8334.56
-9977.35
-11792.1
-13772.1
-15893.3
-18108.3
-20341
-22483.2
-24395.2
-25914
-26870.7
-27117.8
-26561.8
-401.78
-1215.43
-2059.26
-2953
-3915.65
-4964.92
-6116.27
-7381.64
-8767.56
-10272.8
-11885.3
-13578.9
-15310
-17014.9
-18609.2
-19990.3
-21044.8
-21661.2
-21747.3
-21248.7
-360.697
-1090.09
-1843.32
-2635.72
-3481.64
-4393.86
-5382.72
-6454.98
-7612.36
-8849.75
-10153.2
-11497.7
-12845.7
-14145.7
-15333.3
-16333.9
-17068.7
-17463.5
-17459.8
-17025.7
-319.555
-964.876
-1628.64
-2322.51
-3057.08
-3841.32
-4681.82
-5581.82
-6540.19
-7550.04
-8597.46
-9660.29
-10707.3
-11697.9
-12583.7
-13310.7
-13824
-14074
-14023.1
-13652.4
-279.735
-843.933
-1422.12
-2022.98
-2654.16
-3321.75
-4029.67
-4778.95
-5566.84
-6386.03
-7223.74
-8061.1
-8872.85
-9627.65
-10289.3
-10818.8
-11178.1
-11333.4
-11260.4
-10948.1
-242.222
-730.192
-1228.56
-1743.66
-2280.87
-2844.18
-3435.69
-4055.02
-4698.77
-5359.91
-6027.27
-6685.25
-7313.82
-7889
-8383.92
-8770.55
-9022.07
-9115.72
-9035.59
-8775.14
-207.652
-625.535
-1050.99
-1488.53
-1941.84
-2413.4
-2904.08
-3412.77
-3935.9
-4467.12
-4996.99
-5512.88
-5999.14
-6437.56
-6808.27
-7091.08
-7267.16
-7320.94
-7242
-7026.55
-176.381
-530.988
-890.991
-1259.53
-1639.02
-2030.91
-2435.31
-2850.73
-3273.78
-3698.93
-4118.4
-4522.12
-4897.97
-5232.22
-5510.22
-5717.41
-5840.54
-5868.91
-5795.64
-5618.62
-148.541
-446.912
-749.033
-1057.02
-1372.41
-1695.92
-2027.21
-2364.68
-2705.27
-3044.31
-3375.48
-3690.87
-3981.16
-4236.03
-4444.71
-4596.7
-4682.62
-4695.11
-4629.62
-4485.04
-124.097
-373.168
-624.771
-880.282
-1140.61
-1406
-1675.87
-1948.68
-2221.75
-2491.21
-2752.01
-2997.98
-3222.01
-3416.36
-3573.12
-3684.71
-3744.5
-3747.38
-3690.36
-3572.9
-102.899
-309.271
-517.293
-727.813
-941.308
-1157.74
-1376.43
-1595.94
-1814.01
-2027.49
-2232.37
-2423.87
-2596.6
-2744.79
-2862.61
-2944.6
-2986.04
-2983.4
-2934.71
-2839.77
-84.716
-254.509
-425.324
-597.647
-771.67
-947.189
-1123.51
-1299.35
-1472.83
-1641.43
-1801.99
-1950.83
-2083.88
-2196.83
-2285.41
-2345.67
-2374.26
-2368.72
-2327.76
-2251.38
-69.2761
-208.04
-347.392
-487.573
-628.596
-770.171
-911.634
-1051.89
-1189.4
-1322.13
-1447.65
-1563.12
-1665.48
-1751.53
-1818.13
-1862.43
-1882.03
-1875.25
-1841.23
-1780.06
-56.2851
-168.966
-281.943
-395.298
-508.938
-622.541
-735.506
-846.91
-955.497
-1059.68
-1157.55
-1246.97
-1325.61
-1391.12
-1441.18
-1473.74
-1487.09
-1480.06
-1452.09
-1403.32
-45.4473
-136.386
-227.432
-318.568
-409.645
-500.344
-590.136
-678.255
-763.693
-845.203
-921.322
-990.418
-1050.75
-1100.57
-1138.19
-1162.12
-1171.14
-1164.43
-1141.65
-1102.93
-36.4772
-109.435
-182.383
-255.246
-327.856
-399.912
-470.96
-540.374
-607.354
-670.925
-729.966
-783.242
-829.453
-867.298
-895.548
-913.12
-919.152
-913.075
-894.663
-864.067
-29.1084
-87.3043
-145.423
-203.363
-260.951
-317.918
-373.884
-428.341
-480.657
-530.076
-575.743
-616.725
-652.052
-680.763
-701.958
-714.854
-718.84
-713.519
-698.751
-674.674
-23.0976
-69.2594
-115.31
-161.139
-206.582
-251.407
-295.296
-337.844
-378.555
-416.846
-452.066
-483.512
-510.463
-532.21
-548.095
-557.553
-560.147
-555.604
-543.84
-524.974
-18.2275
-54.6443
-90.938
-127
-162.681
-197.785
-232.052
-265.16
-296.721
-326.289
-353.37
-377.437
-397.952
-414.395
-426.285
-433.214
-434.871
-431.069
-421.757
-407.037
-14.3073
-42.8833
-71.3376
-99.5691
-127.449
-154.812
-181.449
-207.105
-231.481
-254.234
-274.992
-293.36
-308.94
-321.348
-330.235
-335.305
-336.338
-333.205
-325.88
-314.444
-11.1714
-33.478
-55.6717
-77.6629
-99.342
-120.573
-141.188
-160.988
-179.742
-197.19
-213.051
-227.029
-238.831
-248.174
-254.805
-258.51
-259.134
-256.587
-250.857
-242.011
-8.67819
-26.0022
-43.2259
-60.2721
-77.0494
-93.4472
-109.333
-124.552
-138.925
-152.257
-164.335
-174.941
-183.858
-190.877
-195.816
-198.52
-198.878
-196.831
-192.374
-185.561
-6.70784
-20.0955
-33.3967
-46.5468
-59.4703
-72.0786
-84.2677
-95.9172
-106.891
-117.042
-126.209
-134.232
-140.95
-146.211
-149.882
-151.852
-152.043
-150.415
-146.966
-141.74
-5.16002
-15.4564
-25.6801
-35.7776
-45.6879
-55.3405
-64.6541
-73.5362
-81.8836
-89.5841
-96.5198
-102.57
-107.617
-111.551
-114.274
-115.707
-115.795
-114.511
-111.855
-107.864
-3.95152
-11.835
-19.6584
-27.3783
-34.9458
-42.3054
-49.3939
-56.1406
-62.4671
-68.2896
-73.52
-78.0695
-81.8515
-84.7855
-86.8013
-87.8423
-87.8695
-86.8641
-84.8295
-81.7923
-3.014
-9.02601
-14.9893
-20.8687
-26.6255
-32.2164
-37.5925
-42.7
-47.4798
-51.869
-55.8024
-59.2143
-62.0415
-64.2253
-65.7149
-66.47
-66.4631
-65.6814
-64.1288
-61.826
-2.29183
-6.86262
-11.3942
-15.8587
-20.2255
-24.4609
-28.5275
-32.3844
-35.9869
-39.2883
-42.2402
-44.7942
-46.904
-48.527
-49.6266
-50.1739
-50.1494
-49.545
-48.364
-46.6225
-1.74022
-5.21038
-8.64927
-12.0348
-15.343
-18.5479
-21.6207
-24.5303
-27.2433
-29.7248
-31.9387
-33.8497
-35.4237
-36.6299
-37.4417
-37.8385
-37.8067
-37.3407
-36.4438
-35.1282
-1.32349
-3.96227
-6.57621
-9.14784
-11.6585
-14.0879
-16.4142
-18.6135
-20.6609
-22.53
-24.1943
-25.6276
-26.8049
-27.7037
-28.3048
-28.5934
-28.5598
-28.2005
-27.5183
-26.5225
-1.01363
-3.03434
-5.03524
-7.00251
-8.92146
-10.7763
-12.5502
-14.2249
-15.7813
-17.1999
-18.4605
-19.5437
-20.4312
-21.1062
-21.5549
-21.7664
-21.734
-21.4553
-20.9328
-20.1736
-0.789082
-2.36196
-3.91885
-5.44864
-6.93964
-8.37939
-9.75459
-11.0512
-12.2544
-13.3492
-14.3203
-15.153
-15.8335
-16.3493
-16.69
-16.8478
-16.8177
-16.5982
-16.1914
-15.603
-0.633765
-1.89691
-3.14679
-4.37425
-5.56969
-6.72297
-7.82334
-8.85952
-9.81978
-10.6921
-11.4647
-12.1258
-12.6648
-13.0721
-13.3395
-13.4613
-13.4336
-13.2555
-12.9288
-12.4581
-0.536267
-1.60499
-2.66221
-3.70001
-4.71013
-5.68389
-6.61217
-7.48542
-8.29377
-9.02723
-9.67587
-10.2301
-10.6811
-11.0209
-11.243
-11.3427
-11.3169
-11.165
-10.8885
-10.4915
-0.489294
-1.46436
-2.42877
-3.37524
-4.29614
-5.1835
-6.02899
-6.82389
-7.55925
-8.226
-8.81518
-9.31815
-9.72694
-10.0345
-10.235
-10.3241
-10.2993
-10.1601
-9.90786
-9.54625
)
;

boundaryField
{
    topWall
    {
        type            calculated;
        value           nonuniform List<scalar> 
20
(
-0.489294
-1.46436
-2.42877
-3.37524
-4.29614
-5.1835
-6.02899
-6.82389
-7.55925
-8.226
-8.81518
-9.31815
-9.72694
-10.0345
-10.235
-10.3241
-10.2993
-10.1601
-9.90786
-9.54625
)
;
    }
    bottomWall
    {
        type            calculated;
        value           nonuniform List<scalar> 
20
(
-64.3744
-196.843
-340.787
-504.964
-699.96
-939.309
-1241.12
-1630.58
-2144
-2835.76
-3790.98
-5150.26
-7163.42
-10319.5
-15702.8
-26090.7
-49687.6
-114081
-318682
-1.00068e+06
)
;
    }
    sideWallL
    {
        type            symmetry;
    }
    sideWallR
    {
        type            calculated;
        value           nonuniform List<scalar> 
45
(
-1.52583e+06
-639554
-348536
-222860
-155696
-114345
-86546.1
-66787.9
-52217.9
-41196.1
-32704.9
-26075.7
-20849.3
-16699
-13386.1
-10731.7
-8599.66
-6884.68
-5504.23
-4393.06
-3499.17
-2780.83
-2204.42
-1742.76
-1373.8
-1079.65
-845.767
-660.343
-513.793
-398.347
-307.717
-236.823
-181.575
-138.691
-105.54
-80.0279
-60.4907
-45.6144
-34.3678
-25.9479
-19.7361
-15.2643
-12.1874
-10.2634
-9.33868
)
;
    }
    frontAndBack
    {
        type            empty;
    }
}


// ************************************************************************* //
