/*--------------------------------*- C++ -*----------------------------------*\
  =========                 |
  \\      /  F ield         | OpenFOAM: The Open Source CFD Toolbox
   \\    /   O peration     | Website:  https://openfoam.org
    \\  /    A nd           | Version:  7
     \\/     M anipulation  |
\*---------------------------------------------------------------------------*/
FoamFile
{
    version     2.0;
    format      ascii;
    class       volScalarField;
    location    "34";
    object      gradTy;
}
// * * * * * * * * * * * * * * * * * * * * * * * * * * * * * * * * * * * * * //

dimensions      [0 -1 0 1 0 0 0];

internalField   nonuniform List<scalar> 
900
(
-246731
-246977
-247481
-248275
-249404
-250940
-252979
-255662
-259180
-263809
-269946
-278178
-289410
-305099
-327745
-361998
-417409
-515866
-712989
-1.15865e+06
-196924
-197143
-197593
-198300
-199305
-200667
-202470
-204830
-207909
-211928
-217204
-224182
-233509
-246129
-263406
-287174
-319234
-358069
-383494
-294325
-166554
-166745
-167137
-167749
-168615
-169780
-171306
-173280
-175811
-179046
-183173
-188426
-195083
-203418
-213543
-224930
-235057
-235900
-206338
-104173
-148011
-148168
-148490
-148991
-149691
-150621
-151820
-153335
-155222
-157544
-160357
-163691
-167498
-171541
-175159
-176793
-173101
-157585
-119611
-48210.1
-131382
-131499
-131739
-132107
-132614
-133274
-134099
-135105
-136295
-137659
-139152
-140660
-141939
-142513
-141498
-137326
-127421
-108035
-75021.1
-27128.8
-115961
-116039
-116194
-116428
-116742
-117134
-117598
-118118
-118663
-119172
-119536
-119566
-118947
-117164
-113407
-106479
-94759.3
-76428.1
-50259.5
-17287.4
-101787
-101826
-101902
-102011
-102146
-102295
-102435
-102534
-102534
-102349
-101842
-100804
-98924.7
-95753.9
-90668.5
-82868.5
-71453.3
-55667.5
-35401.2
-11889.4
-88886.5
-88891.1
-88896.9
-88896.4
-88876.9
-88818.3
-88690.5
-88447.9
-88024.1
-87322.2
-86203.7
-84474
-81866.9
-78031.6
-72533.7
-64885.6
-54636.8
-41550.9
-25871.2
-8582.06
-77243.7
-77219.6
-77166.9
-77075.8
-76930.5
-76707.1
-76370.9
-75872.8
-75144.7
-74093.2
-72592.7
-70478.2
-67540.1
-63525.5
-58151.7
-51143.6
-42305.2
-31628.7
-19422.9
-6397.97
-66812.2
-66765.4
-66666.8
-66505.8
-66265.1
-65919.6
-65434.2
-64761.2
-63836.9
-62578.4
-60879.6
-58609.7
-55613.3
-51717.6
-46749.5
-40566.6
-33106.6
-24449.1
-14873.4
-4878.25
-57526.7
-57463.4
-57331.6
-57120.6
-56813.4
-56385.8
-55804.8
-55026.9
-53996.5
-52643.7
-50884
-48618.2
-45736.3
-42125.8
-37686.7
-32355.1
-26133.7
-19125.6
-11558
-3780.09
-49311.2
-49237
-49083.5
-48840.8
-48493
-48018
-47386.6
-46561
-45494.7
-44131.8
-42407
-40248.2
-37580.5
-34333.9
-30455.3
-25924.4
-20772.2
-15098.6
-9080.29
-2963.9
-42083.7
-42003.5
-41838.4
-41579.6
-41212.9
-40719.2
-40073.3
-39243.9
-38193.7
-36879
-35251.3
-33260
-30855.7
-27997.4
-24660.5
-20847.5
-16599.1
-12002.2
-7191.93
-2344.16
-35760.1
-35677.8
-35509.5
-35247.2
-34879
-34388.7
-33755.4
-32954.2
-31955.6
-30726.8
-29232.9
-27439
-25314.3
-22836.3
-19997.3
-16810.8
-13317.7
-9590.02
-5730.47
-1865.81
-30256.3
-30175.3
-30010.1
-29754.1
-29397.4
-28926.6
-28325.2
-27573.6
-26649.2
-25528.1
-24185.5
-22598.6
-20748.9
-18625.8
-16230.9
-13581.8
-10715.8
-7691.2
-4585.72
-1491.84
-25490.6
-25413.2
-25255.9
-25013.2
-24677
-24236.9
-23679.9
-22990.8
-22153.1
-21149.4
-19963
-18579.2
-16987.9
-15185.8
-13179
-10986
-8638.91
-6184.09
-3680.64
-1196.6
-21384.6
-21312.5
-21166.2
-20941.4
-20631.8
-20229.1
-19723.4
-19103.5
-18357.2
-17472.6
-16438.3
-15245.8
-13890.1
-12372.1
-10700
-8891.09
-6972.26
-4980.2
-2959.84
-961.75
-17864.4
-17798.6
-17665.2
-17461
-17181.1
-16819.1
-16367.8
-15818.8
-15163.5
-14393.8
-13502.5
-12484.9
-11339.4
-10069.1
-8682.61
-7195.35
-5629.47
-4013.81
-2382.66
-773.858
-14860.9
-14801.8
-14682.3
-14499.8
-14250.8
-13930.4
-13533.3
-13053.5
-12485.2
-11822.9
-11062.4
-10201.4
-9240.36
-8183.39
-7038.83
-5819.83
-4544.45
-3235.29
-1918.61
-622.904
-12310.4
-12258.1
-12152.6
-11991.9
-11773.4
-11493.5
-11148.4
-10734.1
-10246.4
-9682.03
-9038.67
-8315.65
-7514.54
-6639.68
-5698.68
-4702.59
-3665.97
-2606.54
-1544.45
-501.265
-10154.8
-10109.2
-10017.2
-9877.44
-9687.98
-9446.34
-9149.8
-8795.57
-8381.07
-7904.31
-7364.25
-6761.2
-6097.25
-5376.64
-4606.01
-3794.55
-2953.91
-2097.97
-1242.21
-403.058
-8341.43
-8302.05
-8222.78
-8102.61
-7940.14
-7733.67
-7481.33
-7181.3
-6832
-6432.39
-5982.22
-5482.36
-4935.07
-4344.23
-3715.54
-3056.52
-2376.49
-1686.28
-997.835
-323.686
-6822.97
-6789.35
-6721.74
-6619.45
-6481.5
-6306.73
-6093.93
-5841.94
-5549.88
-5217.33
-4844.52
-4432.6
-3983.77
-3501.48
-2990.51
-2457
-1908.34
-1353
-800.191
-259.516
-5557.3
-5528.87
-5471.76
-5385.49
-5269.41
-5122.76
-4944.76
-4734.76
-4492.32
-4217.42
-3910.57
-3572.98
-3206.7
-2814.72
-2400.99
-1970.49
-1529.07
-1083.33
-640.405
-207.655
-4507.19
-4483.36
-4435.53
-4363.4
-4266.53
-4144.45
-3996.7
-3822.95
-3623.06
-3397.25
-3146.14
-2870.92
-2573.43
-2256.19
-1922.47
-1576.25
-1222.16
-865.358
-511.345
-165.778
-3639.89
-3620.09
-3580.36
-3520.52
-3440.31
-3339.44
-3217.68
-3074.9
-2911.15
-2726.75
-2522.4
-2299.17
-2058.67
-1803.01
-1534.86
-1257.38
-974.235
-689.438
-407.247
-132.009
-2926.87
-2910.53
-2877.79
-2828.52
-2762.58
-2679.82
-2580.15
-2463.57
-2330.24
-2180.54
-2015.11
-1834.96
-1641.42
-1436.26
-1221.61
-1000.02
-774.349
-547.722
-323.434
-104.827
-2343.35
-2329.97
-2303.18
-2262.9
-2209.07
-2141.63
-2060.56
-1965.96
-1858.03
-1737.16
-1603.96
-1459.26
-1304.23
-1140.27
-969.137
-792.821
-613.57
-433.816
-256.1
-82.9934
-1868.01
-1857.13
-1835.35
-1802.64
-1758.99
-1704.38
-1638.85
-1562.54
-1475.67
-1378.61
-1271.88
-1156.23
-1032.6
-902.134
-766.229
-626.461
-484.588
-342.493
-202.138
-65.4988
-1482.56
-1473.77
-1456.19
-1429.8
-1394.62
-1350.67
-1298.02
-1236.82
-1167.28
-1089.75
-1004.67
-912.672
-814.52
-711.149
-603.658
-493.289
-381.409
-269.48
-159.011
-51.5191
-1171.44
-1164.39
-1150.28
-1129.12
-1100.94
-1065.78
-1023.73
-974.919
-919.558
-857.94
-790.459
-717.621
-640.052
-558.499
-473.831
-387.019
-299.127
-211.282
-124.645
-40.3812
-921.471
-915.842
-904.59
-887.73
-865.293
-837.33
-803.928
-765.215
-721.374
-672.659
-619.397
-562.002
-500.978
-436.92
-370.508
-302.501
-233.723
-165.041
-97.3484
-31.5353
-721.541
-717.077
-708.158
-694.802
-677.042
-654.93
-628.548
-598.01
-563.477
-525.159
-483.328
-438.318
-390.531
-340.437
-288.568
-235.514
-181.91
-128.424
-75.7381
-24.533
-562.354
-558.835
-551.808
-541.29
-527.313
-509.928
-489.207
-465.249
-438.191
-408.208
-375.518
-340.392
-303.147
-264.152
-223.821
-182.61
-141.009
-99.5273
-58.6879
-19.0088
-436.161
-433.405
-427.901
-419.667
-408.732
-395.142
-378.959
-360.268
-339.182
-315.844
-290.43
-263.155
-234.268
-204.056
-172.842
-140.976
-108.832
-76.8018
-45.2817
-14.6657
-336.538
-334.392
-330.108
-323.702
-315.199
-304.639
-292.075
-277.578
-261.239
-243.174
-223.524
-202.456
-180.168
-156.88
-132.842
-108.321
-83.6048
-58.989
-34.7754
-11.2624
-258.182
-256.522
-253.21
-248.258
-241.69
-233.538
-223.845
-212.671
-200.089
-186.191
-171.088
-154.911
-137.813
-119.964
-101.554
-82.7889
-63.8856
-45.0688
-26.5664
-8.60338
-196.731
-195.457
-192.916
-189.117
-184.082
-177.835
-170.413
-161.863
-152.244
-141.627
-130.099
-117.763
-104.735
-91.1453
-77.1393
-62.8721
-48.5078
-34.2157
-20.1671
-6.53071
-148.611
-147.643
-145.711
-142.825
-139
-134.258
-128.627
-122.145
-114.856
-106.819
-98.0981
-88.7728
-78.9316
-68.6738
-58.1083
-47.352
-36.5278
-25.7624
-15.1833
-4.91663
-110.894
-110.167
-108.718
-106.553
-103.686
-100.132
-95.9142
-91.0613
-85.6087
-79.5993
-73.0838
-66.1211
-58.7779
-51.1286
-43.2542
-35.2417
-27.1821
-19.169
-11.2966
-3.65793
-81.1769
-80.6425
-79.5766
-77.9851
-75.8774
-73.2663
-70.1689
-66.6067
-62.6065
-58.2002
-53.4256
-48.3262
-42.951
-37.3547
-31.5966
-25.7399
-19.8509
-13.9977
-8.24865
-2.67089
-57.4775
-57.0976
-56.3401
-55.2092
-53.7118
-51.8574
-49.6584
-47.1306
-44.2931
-41.169
-37.7854
-34.1732
-30.3674
-26.4068
-22.3333
-18.1915
-14.0282
-9.89113
-5.8284
-1.88717
-38.1396
-37.8868
-37.3826
-36.6302
-35.634
-34.4007
-32.9385
-31.2582
-29.3728
-27.2976
-25.0508
-22.6532
-20.128
-17.5008
-14.7996
-12.0539
-9.29453
-6.55311
-3.8613
-1.25022
-21.7503
-21.6058
-21.3177
-20.8878
-20.3187
-19.6142
-18.7792
-17.8199
-16.7436
-15.5593
-14.2775
-12.9098
-11.4698
-9.97195
-8.4322
-6.86739
-5.29504
-3.73313
-2.19962
-0.712191
-7.06442
-7.01744
-6.92378
-6.78401
-6.59901
-6.37001
-6.09862
-5.78683
-5.4371
-5.05232
-4.63587
-4.19162
-3.7239
-3.23747
-2.73748
-2.2294
-1.71892
-1.21185
-0.714033
-0.231188
)
;

boundaryField
{
    topWall
    {
        type            calculated;
        value           uniform 0;
    }
    bottomWall
    {
        type            calculated;
        value           nonuniform List<scalar> 
20
(
-276099
-276356
-276886
-277719
-278906
-280519
-282663
-285484
-289185
-294060
-300528
-309223
-321129
-337877
-362407
-400689
-466770
-599439
-923095
-1.87417e+06
)
;
    }
    sideWallL
    {
        type            symmetry;
    }
    sideWallR
    {
        type            calculated;
        value           nonuniform List<scalar> 
45
(
-1.15865e+06
-294325
-104173
-48210.1
-27128.8
-17287.4
-11889.4
-8582.06
-6397.97
-4878.25
-3780.09
-2963.9
-2344.16
-1865.81
-1491.84
-1196.6
-961.75
-773.858
-622.904
-501.265
-403.058
-323.686
-259.516
-207.655
-165.778
-132.009
-104.827
-82.9934
-65.4988
-51.5191
-40.3812
-31.5353
-24.533
-19.0088
-14.6657
-11.2624
-8.60338
-6.53071
-4.91663
-3.65793
-2.67089
-1.88717
-1.25022
-0.712191
-0.231188
)
;
    }
    frontAndBack
    {
        type            empty;
    }
}


// ************************************************************************* //
