/*--------------------------------*- C++ -*----------------------------------*\
  =========                 |
  \\      /  F ield         | OpenFOAM: The Open Source CFD Toolbox
   \\    /   O peration     | Website:  https://openfoam.org
    \\  /    A nd           | Version:  7
     \\/     M anipulation  |
\*---------------------------------------------------------------------------*/
FoamFile
{
    version     2.0;
    format      ascii;
    class       volScalarField;
    location    "34";
    object      rhoc;
}
// * * * * * * * * * * * * * * * * * * * * * * * * * * * * * * * * * * * * * //

dimensions      [1 -3 0 0 0 0 0];

internalField   nonuniform List<scalar> 
900
(
4.43519e-05
4.42546e-05
4.40546e-05
4.3741e-05
4.32966e-05
4.26968e-05
4.1908e-05
4.08854e-05
3.95709e-05
3.78894e-05
3.57456e-05
3.30221e-05
2.95795e-05
2.52691e-05
1.99725e-05
1.37256e-05
7.07371e-06
1.79122e-06
4.92122e-08
7.78005e-14
5.64766e-07
5.6065e-07
5.52262e-07
5.39288e-07
5.21273e-07
4.9763e-07
4.67695e-07
4.30801e-07
3.86432e-07
3.34472e-07
2.75597e-07
2.11809e-07
1.47039e-07
8.74472e-08
4.06073e-08
1.23568e-08
1.71507e-09
4.71998e-11
2.96631e-14
7.27996e-22
8.14519e-09
8.03838e-09
7.82273e-09
7.49463e-09
7.04992e-09
6.48559e-09
5.80246e-09
5.00896e-09
4.126e-09
3.1921e-09
2.2667e-09
1.42763e-09
7.56725e-10
3.10509e-10
8.58594e-11
1.25662e-11
6.25598e-13
4.5327e-15
8.96888e-19
2.64392e-25
1.16308e-10
1.14049e-10
1.09536e-10
1.02794e-10
9.38988e-11
8.30222e-11
7.04888e-11
5.68367e-11
4.28571e-11
2.95731e-11
1.81079e-11
9.40888e-12
3.88318e-12
1.15143e-12
2.09838e-13
1.83272e-14
5.12895e-16
2.4076e-18
7.26488e-22
6.82082e-27
1.70012e-12
1.65629e-12
1.5697e-12
1.44277e-12
1.27987e-12
1.08806e-12
8.77701e-13
6.62719e-13
4.59701e-13
2.85497e-13
1.53178e-13
6.7529e-14
2.27807e-14
5.30857e-15
7.36671e-16
4.90905e-17
1.15679e-18
6.42473e-21
5.55576e-24
9.84296e-28
2.6749e-14
2.58999e-14
2.424e-14
2.18506e-14
1.88643e-14
1.54709e-14
1.19175e-14
8.49187e-15
5.48293e-15
3.12018e-15
1.50759e-15
5.88011e-16
1.72873e-16
3.49116e-17
4.27456e-18
2.69436e-19
7.14949e-21
6.48418e-23
1.84775e-25
3.14281e-28
4.76361e-16
4.58769e-16
4.24709e-16
3.76477e-16
3.17592e-16
2.52742e-16
1.87481e-16
1.27577e-16
7.79781e-17
4.16467e-17
1.87483e-17
6.78892e-18
1.8616e-18
3.57991e-19
4.39071e-20
3.07462e-21
1.09794e-22
1.85892e-24
1.63907e-26
1.52334e-28
1.00648e-17
9.652e-18
8.85916e-18
7.75152e-18
6.42496e-18
5.00011e-18
3.61008e-18
2.38054e-18
1.40502e-18
7.23385e-19
3.14534e-19
1.10934e-19
3.02115e-20
5.99301e-21
8.11074e-22
7.0137e-23
3.69358e-24
1.19814e-25
2.86536e-27
9.40076e-29
2.63085e-19
2.51568e-19
2.29582e-19
1.99171e-19
1.63255e-19
1.25353e-19
8.91473e-20
5.78701e-20
3.36682e-20
1.71626e-20
7.45803e-21
2.6743e-21
7.62263e-22
1.65819e-22
2.64477e-23
2.99882e-24
2.4074e-25
1.4531e-26
8.12148e-28
6.73652e-29
8.81155e-21
8.41405e-21
7.65808e-21
6.61897e-21
5.40184e-21
4.13009e-21
2.92812e-21
1.90033e-21
1.1113e-21
5.74651e-22
2.57057e-22
9.70548e-23
3.01284e-23
7.49634e-24
1.46529e-24
2.23646e-25
2.73e-26
2.90059e-27
3.26394e-28
5.31955e-29
3.88589e-22
3.71093e-22
3.37871e-22
2.92316e-22
2.39103e-22
1.8363e-22
1.31245e-22
8.63529e-23
5.16309e-23
2.76387e-23
1.30301e-23
5.31732e-24
1.84738e-24
5.39281e-25
1.31594e-25
2.71334e-26
4.92079e-27
8.58967e-28
1.68844e-28
4.4847e-29
2.29928e-23
2.19899e-23
2.00847e-23
1.74693e-23
1.44069e-23
1.12001e-23
8.14825e-24
5.49909e-24
3.40828e-24
1.91865e-24
9.69796e-25
4.35361e-25
1.72081e-25
5.96626e-26
1.82436e-26
5.02516e-27
1.30573e-27
3.46663e-28
1.04727e-28
3.95644e-29
1.84509e-24
1.76934e-24
1.6251e-24
1.42627e-24
1.19189e-24
9.43971e-25
7.0449e-25
4.92143e-25
3.19462e-25
1.91233e-25
1.04812e-25
5.23005e-26
2.37004e-26
9.78332e-27
3.7234e-27
1.34026e-27
4.76358e-28
1.77512e-28
7.39685e-29
3.60467e-29
2.01546e-25
1.93979e-25
1.79519e-25
1.59453e-25
1.3556e-25
1.09916e-25
8.46416e-26
6.16091e-26
4.2181e-26
2.70397e-26
1.61713e-26
9.00886e-27
4.68393e-27
2.28937e-27
1.0676e-27
4.86657e-28
2.24294e-28
1.0868e-28
5.73331e-29
3.36154e-29
2.99173e-26
2.89215e-26
2.70094e-26
2.43335e-26
2.11071e-26
1.7583e-26
1.40264e-26
1.06826e-26
7.74562e-27
5.33514e-27
3.48794e-27
2.16714e-27
1.2854e-27
7.34238e-28
4.09586e-28
2.2747e-28
1.28688e-28
7.5888e-29
4.75077e-29
3.18882e-29
5.99973e-27
5.82869e-27
5.49844e-27
5.03188e-27
4.46135e-27
3.82606e-27
3.16835e-27
2.52932e-27
1.94415e-27
1.43824e-27
1.02491e-27
7.05485e-28
4.71504e-28
3.08449e-28
1.99692e-28
1.29661e-28
8.5646e-29
5.83063e-29
4.13143e-29
3.06358e-29
1.60851e-27
1.57072e-27
1.49734e-27
1.39263e-27
1.26271e-27
1.11517e-27
9.58443e-28
8.01136e-28
6.5115e-28
5.14917e-28
3.96806e-28
2.98885e-28
2.21058e-28
1.61546e-28
1.17545e-28
8.58905e-29
6.35665e-29
4.80099e-29
3.72167e-29
2.97137e-29
5.65974e-28
5.55451e-28
5.34896e-28
5.05281e-28
4.68016e-28
4.24888e-28
3.77953e-28
3.29397e-28
2.81359e-28
2.35751e-28
1.94096e-28
1.57415e-28
1.26199e-28
1.00446e-28
7.97753e-29
6.35602e-29
5.10682e-29
4.15692e-29
3.44058e-29
2.90271e-29
2.53761e-28
2.50159e-28
2.43087e-28
2.32808e-28
2.19708e-28
2.04287e-28
1.87141e-28
1.68925e-28
1.50322e-28
1.31984e-28
1.14491e-28
9.83088e-29
8.37597e-29
7.1017e-29
6.01155e-29
5.09783e-29
4.34511e-29
3.73368e-29
3.24246e-29
2.85116e-29
1.3936e-28
1.3789e-28
1.34991e-28
1.30744e-28
1.25273e-28
1.1874e-28
1.11344e-28
1.03313e-28
9.48939e-29
8.6339e-29
7.78908e-29
6.97659e-29
6.21424e-29
5.51511e-29
4.88724e-29
4.33394e-29
3.85449e-29
3.4451e-29
3.09996e-29
2.81222e-29
8.97763e-29
8.90829e-29
8.77105e-29
8.56879e-29
8.30592e-29
7.98841e-29
7.62374e-29
7.22082e-29
6.78969e-29
6.34114e-29
5.88616e-29
5.43538e-29
4.99846e-29
4.58358e-29
4.19712e-29
3.84347e-29
3.52512e-29
3.24281e-29
2.99589e-29
2.78268e-29
6.51923e-29
6.48256e-29
6.40976e-29
6.30196e-29
6.16091e-29
5.98902e-29
5.78942e-29
5.56593e-29
5.32303e-29
5.06574e-29
4.79944e-29
4.52963e-29
4.26166e-29
4.0005e-29
3.75047e-29
3.5151e-29
3.29704e-29
3.09805e-29
2.91904e-29
2.7602e-29
5.16611e-29
5.14492e-29
5.10276e-29
5.0401e-29
4.9577e-29
4.85662e-29
4.73827e-29
4.60444e-29
4.45729e-29
4.29933e-29
4.13335e-29
3.96237e-29
3.78945e-29
3.61762e-29
3.44972e-29
3.28827e-29
3.13542e-29
2.99286e-29
2.86182e-29
2.74309e-29
4.35967e-29
4.34657e-29
4.32047e-29
4.28158e-29
4.23024e-29
4.16697e-29
4.09243e-29
4.00753e-29
3.91338e-29
3.81132e-29
3.70289e-29
3.58981e-29
3.47391e-29
3.35707e-29
3.24114e-29
3.12789e-29
3.0189e-29
2.91555e-29
2.81898e-29
2.73003e-29
3.84939e-29
3.84088e-29
3.82389e-29
3.79853e-29
3.76497e-29
3.72345e-29
3.67434e-29
3.61811e-29
3.55537e-29
3.48687e-29
3.41351e-29
3.33631e-29
3.25641e-29
3.17499e-29
3.09329e-29
3.01252e-29
2.93384e-29
2.85828e-29
2.78677e-29
2.72009e-29
3.51174e-29
3.50599e-29
3.49452e-29
3.47736e-29
3.45462e-29
3.42642e-29
3.39296e-29
3.3545e-29
3.31141e-29
3.26412e-29
3.21319e-29
3.15924e-29
3.10299e-29
3.04523e-29
2.98679e-29
2.92849e-29
2.87117e-29
2.81561e-29
2.76251e-29
2.71251e-29
3.28077e-29
3.27678e-29
3.26881e-29
3.25689e-29
3.24106e-29
3.22141e-29
3.19804e-29
3.17112e-29
3.14085e-29
3.10753e-29
3.07148e-29
3.03313e-29
2.99293e-29
2.95142e-29
2.90916e-29
2.86673e-29
2.82471e-29
2.78369e-29
2.74421e-29
2.70674e-29
3.11884e-29
3.11602e-29
3.11037e-29
3.10192e-29
3.0907e-29
3.07674e-29
3.06013e-29
3.04095e-29
3.01935e-29
2.99551e-29
2.96965e-29
2.94204e-29
2.91301e-29
2.8829e-29
2.85211e-29
2.82104e-29
2.79012e-29
2.75978e-29
2.7304e-29
2.70237e-29
3.00327e-29
3.00123e-29
2.99718e-29
2.9911e-29
2.98303e-29
2.97299e-29
2.96102e-29
2.9472e-29
2.93161e-29
2.91437e-29
2.89564e-29
2.8756e-29
2.85446e-29
2.83249e-29
2.80994e-29
2.78711e-29
2.76431e-29
2.74183e-29
2.71999e-29
2.69905e-29
2.9197e-29
2.91822e-29
2.91528e-29
2.91087e-29
2.90501e-29
2.89771e-29
2.88902e-29
2.87897e-29
2.86762e-29
2.85507e-29
2.84141e-29
2.82678e-29
2.81132e-29
2.79522e-29
2.77866e-29
2.76185e-29
2.74502e-29
2.72837e-29
2.71214e-29
2.69654e-29
2.85873e-29
2.85765e-29
2.8555e-29
2.85227e-29
2.84799e-29
2.84266e-29
2.8363e-29
2.82896e-29
2.82066e-29
2.81148e-29
2.80148e-29
2.79076e-29
2.77942e-29
2.76759e-29
2.75541e-29
2.74303e-29
2.7306e-29
2.71828e-29
2.70625e-29
2.69465e-29
2.81397e-29
2.81318e-29
2.8116e-29
2.80923e-29
2.80609e-29
2.80218e-29
2.79752e-29
2.79213e-29
2.78605e-29
2.77931e-29
2.77197e-29
2.7641e-29
2.75578e-29
2.74708e-29
2.73812e-29
2.729e-29
2.71983e-29
2.71073e-29
2.70183e-29
2.69323e-29
2.78099e-29
2.78041e-29
2.77925e-29
2.77751e-29
2.7752e-29
2.77233e-29
2.7689e-29
2.76494e-29
2.76047e-29
2.75553e-29
2.75014e-29
2.74436e-29
2.73824e-29
2.73185e-29
2.72526e-29
2.71855e-29
2.7118e-29
2.70509e-29
2.69852e-29
2.69216e-29
2.75664e-29
2.75622e-29
2.75536e-29
2.75408e-29
2.75238e-29
2.75027e-29
2.74775e-29
2.74485e-29
2.74156e-29
2.73793e-29
2.73398e-29
2.72973e-29
2.72524e-29
2.72055e-29
2.71571e-29
2.71078e-29
2.70582e-29
2.70089e-29
2.69605e-29
2.69136e-29
2.73866e-29
2.73835e-29
2.73772e-29
2.73678e-29
2.73553e-29
2.73398e-29
2.73213e-29
2.73e-29
2.72759e-29
2.72492e-29
2.72202e-29
2.71891e-29
2.71562e-29
2.71218e-29
2.70864e-29
2.70502e-29
2.70138e-29
2.69776e-29
2.69421e-29
2.69077e-29
2.7254e-29
2.72517e-29
2.7247e-29
2.72401e-29
2.7231e-29
2.72196e-29
2.7206e-29
2.71904e-29
2.71727e-29
2.71532e-29
2.7132e-29
2.71092e-29
2.70851e-29
2.706e-29
2.7034e-29
2.70076e-29
2.6981e-29
2.69545e-29
2.69285e-29
2.69033e-29
2.71562e-29
2.71545e-29
2.71512e-29
2.71461e-29
2.71394e-29
2.7131e-29
2.71211e-29
2.71096e-29
2.70967e-29
2.70825e-29
2.70669e-29
2.70503e-29
2.70327e-29
2.70144e-29
2.69954e-29
2.69762e-29
2.69567e-29
2.69374e-29
2.69184e-29
2.69e-29
2.70845e-29
2.70833e-29
2.70808e-29
2.70771e-29
2.70721e-29
2.7066e-29
2.70588e-29
2.70504e-29
2.7041e-29
2.70306e-29
2.70192e-29
2.70071e-29
2.69943e-29
2.69809e-29
2.69671e-29
2.69531e-29
2.69389e-29
2.69249e-29
2.69111e-29
2.68977e-29
2.70321e-29
2.70312e-29
2.70293e-29
2.70266e-29
2.7023e-29
2.70186e-29
2.70133e-29
2.70071e-29
2.70003e-29
2.69927e-29
2.69844e-29
2.69756e-29
2.69662e-29
2.69565e-29
2.69464e-29
2.69362e-29
2.69259e-29
2.69157e-29
2.69057e-29
2.68959e-29
2.6994e-29
2.69934e-29
2.6992e-29
2.699e-29
2.69874e-29
2.69841e-29
2.69803e-29
2.69758e-29
2.69707e-29
2.69652e-29
2.69591e-29
2.69527e-29
2.69459e-29
2.69388e-29
2.69315e-29
2.6924e-29
2.69165e-29
2.69091e-29
2.69017e-29
2.68946e-29
2.69668e-29
2.69663e-29
2.69653e-29
2.69638e-29
2.69619e-29
2.69595e-29
2.69566e-29
2.69533e-29
2.69496e-29
2.69455e-29
2.69411e-29
2.69363e-29
2.69313e-29
2.69261e-29
2.69207e-29
2.69153e-29
2.69098e-29
2.69043e-29
2.68989e-29
2.68937e-29
2.69476e-29
2.69473e-29
2.69465e-29
2.69454e-29
2.6944e-29
2.69422e-29
2.694e-29
2.69375e-29
2.69348e-29
2.69317e-29
2.69284e-29
2.69249e-29
2.69211e-29
2.69172e-29
2.69132e-29
2.69091e-29
2.69051e-29
2.6901e-29
2.6897e-29
2.68931e-29
2.69348e-29
2.69345e-29
2.69339e-29
2.6933e-29
2.69319e-29
2.69305e-29
2.69288e-29
2.69269e-29
2.69248e-29
2.69224e-29
2.69199e-29
2.69171e-29
2.69142e-29
2.69112e-29
2.69082e-29
2.6905e-29
2.69019e-29
2.68987e-29
2.68957e-29
2.68927e-29
2.69268e-29
2.69266e-29
2.69261e-29
2.69254e-29
2.69245e-29
2.69233e-29
2.6922e-29
2.69204e-29
2.69187e-29
2.69167e-29
2.69146e-29
2.69124e-29
2.691e-29
2.69076e-29
2.69051e-29
2.69025e-29
2.68999e-29
2.68974e-29
2.68948e-29
2.68924e-29
2.69231e-29
2.69228e-29
2.69224e-29
2.69218e-29
2.6921e-29
2.69199e-29
2.69187e-29
2.69173e-29
2.69157e-29
2.6914e-29
2.69121e-29
2.69101e-29
2.6908e-29
2.69058e-29
2.69036e-29
2.69013e-29
2.6899e-29
2.68967e-29
2.68945e-29
2.68923e-29
)
;

boundaryField
{
    topWall
    {
        type            zeroGradient;
    }
    bottomWall
    {
        type            zeroGradient;
    }
    sideWallL
    {
        type            symmetry;
    }
    sideWallR
    {
        type            zeroGradient;
    }
    frontAndBack
    {
        type            empty;
    }
}


// ************************************************************************* //
