/*--------------------------------*- C++ -*----------------------------------*\
  =========                 |
  \\      /  F ield         | OpenFOAM: The Open Source CFD Toolbox
   \\    /   O peration     | Website:  https://openfoam.org
    \\  /    A nd           | Version:  7
     \\/     M anipulation  |
\*---------------------------------------------------------------------------*/
FoamFile
{
    version     2.0;
    format      ascii;
    class       volScalarField;
    location    "34";
    object      rhog;
}
// * * * * * * * * * * * * * * * * * * * * * * * * * * * * * * * * * * * * * //

dimensions      [1 -3 0 0 0 0 0];

internalField   nonuniform List<scalar> 
900
(
0.292447
0.291989
0.291047
0.289569
0.287471
0.284631
0.280884
0.276005
0.269695
0.261555
0.251059
0.237512
0.220004
0.197362
0.168138
0.130805
0.0849301
0.0360076
0.00427597
1.79679e-06
0.0180394
0.0179604
0.0177987
0.0175468
0.0171932
0.016722
0.0161132
0.0153419
0.0143798
0.0131969
0.0117656
0.0100703
0.00812264
0.00598893
0.00382688
0.00191605
0.00060963
7.58156e-05
1.02649e-06
3.19342e-11
0.00152523
0.00151352
0.00148969
0.00145292
0.001402
0.00133544
0.00125158
0.00114886
0.00102624
0.000883925
0.000724395
0.00055374
0.000382971
0.000228274
0.000108155
3.53597e-05
6.14717e-06
3.42897e-07
2.23288e-09
2.72536e-13
0.000131113
0.000129619
0.000126599
0.000121989
0.000115712
0.00010769
9.78827e-05
8.63317e-05
7.32259e-05
5.898e-05
4.43074e-05
3.02441e-05
1.80456e-05
8.87294e-06
3.27897e-06
7.85819e-07
9.60109e-08
4.04302e-09
3.24164e-11
2.9337e-14
1.13322e-05
1.11599e-05
1.0814e-05
1.02923e-05
9.5942e-06
8.72314e-06
7.69108e-06
6.5235e-06
5.26489e-06
3.98245e-06
2.76467e-06
1.7102e-06
9.03846e-07
3.84096e-07
1.20141e-07
2.43106e-08
2.64396e-09
1.20359e-10
1.75221e-12
8.87787e-15
1.01062e-06
9.9159e-07
9.5364e-07
8.97087e-07
8.22696e-07
7.32005e-07
6.2773e-07
5.14158e-07
3.97379e-07
2.85094e-07
1.85716e-07
1.06604e-07
5.17656e-08
2.01159e-08
5.80306e-09
1.12537e-09
1.29615e-10
7.76345e-12
2.25235e-13
4.34975e-15
9.58135e-08
9.37032e-08
8.95211e-08
8.33572e-08
7.53757e-08
6.58474e-08
5.51806e-08
4.39404e-08
3.28357e-08
2.26525e-08
1.41209e-08
7.73478e-09
3.59052e-09
1.3486e-09
3.86876e-10
7.91798e-11
1.07632e-11
9.2263e-13
5.16988e-14
2.75393e-15
9.93977e-09
9.69538e-09
9.21376e-09
8.51057e-09
7.61216e-09
6.55828e-09
5.40399e-09
4.21918e-09
3.08389e-09
2.07804e-09
1.26609e-09
6.80761e-10
3.13558e-10
1.19398e-10
3.61006e-11
8.31526e-12
1.41191e-12
1.76455e-13
1.77316e-14
2.026e-15
1.15826e-09
1.12772e-09
1.0678e-09
9.80962e-10
8.7117e-10
7.44082e-10
6.07103e-10
4.69071e-10
3.39455e-10
2.26979e-10
1.37932e-10
7.46874e-11
3.52228e-11
1.41082e-11
4.67937e-12
1.25868e-12
2.72734e-13
4.89353e-14
8.1044e-15
1.63718e-15
1.55017e-10
1.50786e-10
1.42512e-10
1.30583e-10
1.15608e-10
9.84239e-11
8.00855e-11
6.17984e-11
4.47958e-11
3.01564e-11
1.86043e-11
1.03607e-11
5.12444e-12
2.21501e-12
8.25492e-13
2.63629e-13
7.28646e-14
1.81905e-14
4.56655e-15
1.40689e-15
2.42488e-11
2.35853e-11
2.22903e-11
2.04289e-11
1.81008e-11
1.54407e-11
1.26133e-11
9.80205e-12
7.18987e-12
4.93279e-12
3.1335e-12
1.82329e-12
9.61563e-13
4.55545e-13
1.92965e-13
7.33631e-14
2.55315e-14
8.53217e-15
2.99994e-15
1.26049e-15
4.48811e-12
4.36862e-12
4.13553e-12
3.80075e-12
3.38236e-12
2.90434e-12
2.39563e-12
1.88805e-12
1.41302e-12
9.97346e-13
6.59134e-13
4.05022e-13
2.30029e-13
1.20344e-13
5.80864e-14
2.61282e-14
1.12201e-14
4.81111e-15
2.20503e-15
1.16261e-15
9.89893e-13
9.64959e-13
9.16295e-13
8.46331e-13
7.58725e-13
6.58299e-13
5.50835e-13
4.42676e-13
3.40112e-13
2.4862e-13
1.72105e-13
1.12377e-13
6.90527e-14
3.99568e-14
2.18945e-14
1.15118e-14
5.94844e-15
3.13285e-15
1.75896e-15
1.09474e-15
2.60825e-13
2.54778e-13
2.4296e-13
2.25928e-13
2.04515e-13
1.79822e-13
1.53166e-13
1.26004e-13
9.98001e-14
7.58695e-14
5.52164e-14
3.84121e-14
2.55511e-14
1.63049e-14
1.0058e-14
6.07905e-15
3.67361e-15
2.27806e-15
1.48909e-15
1.0464e-15
8.20015e-14
8.03006e-14
7.69698e-14
7.21521e-14
6.60626e-14
5.89848e-14
5.12614e-14
4.32749e-14
3.54183e-14
2.80578e-14
2.14929e-14
1.59236e-14
1.14331e-14
7.99179e-15
5.48129e-15
3.73183e-15
2.56029e-15
1.79989e-15
1.31629e-15
1.01127e-15
3.06392e-14
3.00877e-14
2.90051e-14
2.74326e-14
2.54324e-14
2.30869e-14
2.04968e-14
1.77761e-14
1.50448e-14
1.24191e-14
1.00004e-14
7.86523e-15
6.0584e-15
4.59163e-15
3.44719e-15
2.58617e-15
1.95852e-15
1.51237e-15
1.2008e-15
9.85341e-16
1.35174e-14
1.33132e-14
1.29114e-14
1.23251e-14
1.15743e-14
1.06858e-14
9.69262e-15
8.63292e-15
7.54783e-15
6.47872e-15
5.46373e-15
4.53453e-15
3.7136e-15
3.01287e-15
2.4339e-15
1.96961e-15
1.60689e-15
1.32958e-15
1.12105e-15
9.65995e-16
6.97261e-15
6.88732e-15
6.71903e-15
6.47238e-15
6.15446e-15
5.77487e-15
5.34559e-15
4.88072e-15
4.39587e-15
3.9073e-15
3.43074e-15
2.98028e-15
2.5672e-15
2.19927e-15
1.88044e-15
1.61106e-15
1.38855e-15
1.20829e-15
1.06458e-15
9.51435e-16
4.14464e-15
4.10498e-15
4.02654e-15
3.9111e-15
3.76138e-15
3.58114e-15
3.37512e-15
3.14901e-15
2.90929e-15
2.6629e-15
2.41687e-15
2.17787e-15
1.95174e-15
1.74309e-15
1.55511e-15
1.38947e-15
1.24643e-15
1.12511e-15
1.02382e-15
9.40411e-16
2.78472e-15
2.76448e-15
2.72437e-15
2.66511e-15
2.58784e-15
2.49413e-15
2.38601e-15
2.26596e-15
2.13687e-15
2.00193e-15
1.86451e-15
1.72795e-15
1.59536e-15
1.46948e-15
1.35246e-15
1.24583e-15
1.15046e-15
1.06659e-15
9.93986e-16
9.32026e-16
2.06836e-15
2.05719e-15
2.035e-15
2.00211e-15
1.95902e-15
1.90643e-15
1.84528e-15
1.77671e-15
1.7021e-15
1.62302e-15
1.54117e-15
1.45832e-15
1.37619e-15
1.2964e-15
1.22037e-15
1.14922e-15
1.0838e-15
1.02462e-15
9.71902e-16
9.2563e-16
1.66125e-15
1.65466e-15
1.64155e-15
1.62207e-15
1.59646e-15
1.56503e-15
1.52825e-15
1.48667e-15
1.441e-15
1.39204e-15
1.34071e-15
1.28797e-15
1.23482e-15
1.18225e-15
1.13116e-15
1.08235e-15
1.03649e-15
9.94066e-16
9.55423e-16
9.20743e-16
1.41507e-15
1.41097e-15
1.40281e-15
1.39064e-15
1.3746e-15
1.35484e-15
1.33158e-15
1.30513e-15
1.27585e-15
1.24419e-15
1.21064e-15
1.17578e-15
1.14019e-15
1.10448e-15
1.06925e-15
1.03504e-15
1.00235e-15
9.7158e-16
9.43056e-16
9.17005e-16
1.2586e-15
1.25594e-15
1.25063e-15
1.24271e-15
1.23223e-15
1.21928e-15
1.20399e-15
1.1865e-15
1.16704e-15
1.14584e-15
1.1232e-15
1.09946e-15
1.07498e-15
1.05016e-15
1.02537e-15
1.001e-15
9.77405e-16
9.54894e-16
9.33737e-16
9.14146e-16
1.15514e-15
1.15335e-15
1.14978e-15
1.14444e-15
1.13737e-15
1.12861e-15
1.11823e-15
1.10633e-15
1.09301e-15
1.07843e-15
1.06277e-15
1.04623e-15
1.02905e-15
1.01148e-15
9.93774e-16
9.76201e-16
9.59011e-16
9.4244e-16
9.26697e-16
9.1196e-16
1.08458e-15
1.08334e-15
1.08088e-15
1.07719e-15
1.07229e-15
1.06622e-15
1.059e-15
1.0507e-15
1.04139e-15
1.03116e-15
1.02011e-15
1.00839e-15
9.96143e-16
9.83537e-16
9.7075e-16
9.57963e-16
9.45357e-16
9.33106e-16
9.2137e-16
9.10291e-16
1.03529e-15
1.03442e-15
1.03268e-15
1.03008e-15
1.02662e-15
1.02233e-15
1.01722e-15
1.01134e-15
1.00472e-15
9.97418e-16
9.89517e-16
9.81101e-16
9.7227e-16
9.63137e-16
9.53825e-16
9.44461e-16
9.35175e-16
9.26094e-16
9.17339e-16
9.09018e-16
1.00023e-15
9.99611e-16
9.98366e-16
9.96503e-16
9.94027e-16
9.90949e-16
9.87284e-16
9.83053e-16
9.78286e-16
9.73023e-16
9.67311e-16
9.6121e-16
9.54789e-16
9.48126e-16
9.41306e-16
9.3442e-16
9.2756e-16
9.20819e-16
9.14288e-16
9.0805e-16
9.74952e-16
9.74501e-16
9.736e-16
9.72251e-16
9.70459e-16
9.68229e-16
9.65572e-16
9.62502e-16
9.59041e-16
9.55213e-16
9.51053e-16
9.46601e-16
9.41906e-16
9.37021e-16
9.32008e-16
9.2693e-16
9.21855e-16
9.1685e-16
9.11982e-16
9.07314e-16
9.56538e-16
9.56209e-16
9.55552e-16
9.54568e-16
9.5326e-16
9.51633e-16
9.49693e-16
9.47452e-16
9.44922e-16
9.42123e-16
9.39078e-16
9.35815e-16
9.32369e-16
9.28777e-16
9.25084e-16
9.21335e-16
9.17579e-16
9.13865e-16
9.10242e-16
9.06757e-16
9.43031e-16
9.4279e-16
9.42308e-16
9.41587e-16
9.40627e-16
9.39434e-16
9.38012e-16
9.36368e-16
9.34512e-16
9.32458e-16
9.30222e-16
9.27825e-16
9.2529e-16
9.22645e-16
9.19922e-16
9.17154e-16
9.14375e-16
9.11622e-16
9.08931e-16
9.06336e-16
9.33077e-16
9.329e-16
9.32545e-16
9.32015e-16
9.31309e-16
9.30432e-16
9.29386e-16
9.28177e-16
9.26813e-16
9.25303e-16
9.23658e-16
9.21895e-16
9.20029e-16
9.18081e-16
9.16073e-16
9.1403e-16
9.11977e-16
9.0994e-16
9.07946e-16
9.06019e-16
9.25721e-16
9.2559e-16
9.25329e-16
9.24938e-16
9.24419e-16
9.23773e-16
9.23003e-16
9.22114e-16
9.2111e-16
9.19999e-16
9.18789e-16
9.17491e-16
9.16118e-16
9.14684e-16
9.13206e-16
9.117e-16
9.10185e-16
9.08681e-16
9.07207e-16
9.05781e-16
9.20278e-16
9.20181e-16
9.19989e-16
9.19701e-16
9.19318e-16
9.18843e-16
9.18276e-16
9.17622e-16
9.16883e-16
9.16066e-16
9.15177e-16
9.14223e-16
9.13213e-16
9.12159e-16
9.11072e-16
9.09964e-16
9.0885e-16
9.07742e-16
9.06655e-16
9.05603e-16
9.1625e-16
9.16179e-16
9.16038e-16
9.15825e-16
9.15544e-16
9.15194e-16
9.14777e-16
9.14296e-16
9.13754e-16
9.13153e-16
9.125e-16
9.118e-16
9.11059e-16
9.10286e-16
9.09488e-16
9.08675e-16
9.07856e-16
9.07043e-16
9.06244e-16
9.0547e-16
9.13273e-16
9.13221e-16
9.13117e-16
9.12961e-16
9.12754e-16
9.12497e-16
9.12191e-16
9.11838e-16
9.1144e-16
9.11e-16
9.10521e-16
9.10008e-16
9.09466e-16
9.08899e-16
9.08315e-16
9.07719e-16
9.0712e-16
9.06524e-16
9.05939e-16
9.05372e-16
9.11078e-16
9.1104e-16
9.10963e-16
9.10849e-16
9.10697e-16
9.10508e-16
9.10284e-16
9.10025e-16
9.09734e-16
9.09412e-16
9.09061e-16
9.08686e-16
9.0829e-16
9.07876e-16
9.07449e-16
9.07014e-16
9.06576e-16
9.06141e-16
9.05714e-16
9.05299e-16
9.09464e-16
9.09436e-16
9.0938e-16
9.09296e-16
9.09185e-16
9.09047e-16
9.08882e-16
9.08693e-16
9.0848e-16
9.08245e-16
9.07989e-16
9.07715e-16
9.07426e-16
9.07124e-16
9.06813e-16
9.06496e-16
9.06177e-16
9.05859e-16
9.05548e-16
9.05245e-16
9.08283e-16
9.08263e-16
9.08222e-16
9.0816e-16
9.08079e-16
9.07978e-16
9.07858e-16
9.07719e-16
9.07564e-16
9.07392e-16
9.07205e-16
9.07005e-16
9.06794e-16
9.06574e-16
9.06347e-16
9.06117e-16
9.05884e-16
9.05653e-16
9.05426e-16
9.05206e-16
9.07426e-16
9.07411e-16
9.07381e-16
9.07336e-16
9.07276e-16
9.07202e-16
9.07114e-16
9.07013e-16
9.06899e-16
9.06773e-16
9.06636e-16
9.0649e-16
9.06336e-16
9.06175e-16
9.0601e-16
9.05842e-16
9.05672e-16
9.05504e-16
9.05338e-16
9.05177e-16
9.06811e-16
9.068e-16
9.06778e-16
9.06744e-16
9.067e-16
9.06645e-16
9.06581e-16
9.06506e-16
9.06422e-16
9.06329e-16
9.06229e-16
9.06121e-16
9.06008e-16
9.0589e-16
9.05768e-16
9.05644e-16
9.0552e-16
9.05396e-16
9.05275e-16
9.05157e-16
9.06379e-16
9.06371e-16
9.06354e-16
9.06329e-16
9.06296e-16
9.06255e-16
9.06206e-16
9.0615e-16
9.06087e-16
9.06018e-16
9.05943e-16
9.05862e-16
9.05778e-16
9.05689e-16
9.05599e-16
9.05506e-16
9.05413e-16
9.05321e-16
9.05231e-16
9.05143e-16
9.06088e-16
9.06081e-16
9.06068e-16
9.06049e-16
9.06023e-16
9.05991e-16
9.05954e-16
9.0591e-16
9.05862e-16
9.05808e-16
9.0575e-16
9.05688e-16
9.05622e-16
9.05554e-16
9.05484e-16
9.05413e-16
9.05342e-16
9.05271e-16
9.05201e-16
9.05133e-16
9.05909e-16
9.05903e-16
9.05893e-16
9.05877e-16
9.05856e-16
9.05829e-16
9.05798e-16
9.05763e-16
9.05723e-16
9.05679e-16
9.05631e-16
9.05581e-16
9.05527e-16
9.05471e-16
9.05414e-16
9.05356e-16
9.05297e-16
9.05239e-16
9.05182e-16
9.05127e-16
9.05823e-16
9.05819e-16
9.05809e-16
9.05795e-16
9.05776e-16
9.05752e-16
9.05725e-16
9.05693e-16
9.05657e-16
9.05618e-16
9.05575e-16
9.0553e-16
9.05482e-16
9.05432e-16
9.05381e-16
9.05329e-16
9.05276e-16
9.05225e-16
9.05174e-16
9.05124e-16
)
;

boundaryField
{
    topWall
    {
        type            calculated;
        value           uniform 0;
    }
    bottomWall
    {
        type            zeroGradient;
    }
    sideWallL
    {
        type            symmetry;
    }
    sideWallR
    {
        type            calculated;
        value           uniform 0;
    }
    frontAndBack
    {
        type            empty;
    }
}


// ************************************************************************* //
