/*--------------------------------*- C++ -*----------------------------------*\
  =========                 |
  \\      /  F ield         | OpenFOAM: The Open Source CFD Toolbox
   \\    /   O peration     | Website:  https://openfoam.org
    \\  /    A nd           | Version:  7
     \\/     M anipulation  |
\*---------------------------------------------------------------------------*/
FoamFile
{
    version     2.0;
    format      ascii;
    class       volScalarField;
    location    "34";
    object      rhois;
}
// * * * * * * * * * * * * * * * * * * * * * * * * * * * * * * * * * * * * * //

dimensions      [1 -3 0 0 0 0 0];

internalField   nonuniform List<scalar> 
900
(
0.437508
0.437108
0.436284
0.434987
0.433139
0.430625
0.427285
0.422897
0.417155
0.409639
0.39976
0.386685
0.36921
0.345549
0.312978
0.267248
0.202168
0.113464
0.0250525
8.87778e-05
0.0695842
0.0693729
0.0689394
0.0682611
0.0673026
0.0660142
0.0643294
0.0621622
0.0594051
0.0559273
0.0515775
0.0461957
0.0396437
0.0318778
0.0230962
0.0140016
0.00609236
0.00133592
5.86418e-05
3.31506e-08
0.0115843
0.0115207
0.0113906
0.0111887
0.0109064
0.0105325
0.0100534
0.00945324
0.00871562
0.00782644
0.00677891
0.00558216
0.00427409
0.00293703
0.00170776
0.000758187
0.000212801
2.62337e-05
6.90532e-07
1.12508e-09
0.00191184
0.00189619
0.00186437
0.00181537
0.00174774
0.00165974
0.0015495
0.00141547
0.00125699
0.00107523
0.000874446
0.000663422
0.000456517
0.000273002
0.000132727
4.71592e-05
1.03003e-05
1.0463e-06
3.27466e-08
2.37772e-10
0.00031715
0.000313684
0.000306677
0.000295984
0.000281423
0.000262816
0.00024006
0.000213228
0.000182716
0.000149403
0.00011481
8.11638e-05
5.12025e-05
2.75894e-05
1.19143e-05
3.75917e-06
7.59622e-07
8.25986e-08
4.06698e-09
1.04526e-10
5.40273e-05
5.32965e-05
5.18267e-05
4.96044e-05
4.6618e-05
4.28693e-05
3.83894e-05
3.32594e-05
2.76335e-05
2.17591e-05
1.59807e-05
1.0713e-05
6.3656e-06
3.22154e-06
1.31611e-06
4.04573e-07
8.58539e-08
1.15234e-08
9.52211e-10
6.42145e-11
9.66219e-06
9.50949e-06
9.20391e-06
8.7458e-06
8.13773e-06
7.38681e-06
6.5079e-06
5.52701e-06
4.4843e-06
3.43501e-06
2.44623e-06
1.58743e-06
9.14695e-07
4.52833e-07
1.84931e-07
5.94253e-08
1.43295e-08
2.52216e-09
3.40558e-10
4.70079e-11
1.8528e-06
1.82017e-06
1.75517e-06
1.65845e-06
1.53143e-06
1.37674e-06
1.19879e-06
1.00429e-06
8.025e-07
6.04952e-07
4.24286e-07
2.72119e-07
1.56266e-07
7.83695e-08
3.33835e-08
1.17522e-08
3.35562e-09
7.84417e-10
1.63003e-10
3.80975e-11
3.88325e-07
3.81012e-07
3.66495e-07
3.45024e-07
3.17065e-07
2.83382e-07
2.4514e-07
2.0397e-07
1.61967e-07
1.21561e-07
8.5227e-08
5.50477e-08
3.22385e-08
1.68274e-08
7.69912e-09
3.05069e-09
1.04753e-09
3.21015e-10
9.57701e-11
3.2899e-11
9.04241e-08
8.86683e-08
8.5192e-08
8.00736e-08
7.34485e-08
6.55269e-08
5.66106e-08
4.71005e-08
3.7487e-08
2.83122e-08
2.01029e-08
1.32805e-08
8.07348e-09
4.46943e-09
2.23567e-09
1.0093e-09
4.16349e-10
1.6287e-10
6.51137e-11
2.96183e-11
2.36997e-08
2.32408e-08
2.23339e-08
2.10023e-08
1.9285e-08
1.72402e-08
1.49486e-08
1.25136e-08
1.00579e-08
7.71344e-09
5.60525e-09
3.83205e-09
2.44811e-09
1.45413e-09
8.02029e-10
4.13169e-10
2.0239e-10
9.77057e-11
4.91494e-11
2.74325e-11
7.05774e-09
6.92574e-09
6.66508e-09
6.28281e-09
5.7905e-09
5.205e-09
4.54913e-09
3.85158e-09
3.14572e-09
2.46702e-09
1.84906e-09
1.31871e-09
8.91969e-10
5.71622e-10
3.48123e-10
2.03377e-10
1.16105e-10
6.66878e-11
3.99917e-11
2.59189e-11
2.40251e-09
2.36044e-09
2.27736e-09
2.15551e-09
1.99849e-09
1.8115e-09
1.60148e-09
1.37704e-09
1.14818e-09
9.25476e-10
7.19098e-10
5.37473e-10
3.86156e-10
2.67126e-10
1.78847e-10
1.17069e-10
7.61163e-11
5.01983e-11
3.43496e-11
2.48409e-11
9.37613e-10
9.22721e-10
8.93295e-10
8.50083e-10
7.94287e-10
7.27625e-10
6.52373e-10
5.71358e-10
4.87856e-10
4.05378e-10
3.27364e-10
2.56798e-10
1.9586e-10
1.45674e-10
1.06259e-10
7.669e-11
5.54202e-11
4.06568e-11
3.06829e-11
2.40568e-11
4.19537e-10
4.13692e-10
4.0213e-10
3.85118e-10
3.63083e-10
3.36636e-10
3.06585e-10
2.73938e-10
2.39872e-10
2.05668e-10
1.72613e-10
1.41881e-10
1.14408e-10
9.0796e-11
7.1274e-11
5.57187e-11
4.37345e-11
3.47644e-11
2.8202e-11
2.34777e-11
2.14547e-10
2.12015e-10
2.07e-10
1.99603e-10
1.89987e-10
1.78384e-10
1.65103e-10
1.50533e-10
1.35134e-10
1.19416e-10
1.03905e-10
8.91041e-11
7.54459e-11
6.32525e-11
5.2712e-11
4.38747e-11
3.66699e-11
3.09386e-11
2.64715e-11
2.3045e-11
1.24481e-10
1.23279e-10
1.20896e-10
1.17372e-10
1.12771e-10
1.0719e-10
1.00754e-10
9.36251e-11
8.59962e-11
7.80863e-11
7.01289e-11
6.23557e-11
5.49788e-11
4.81735e-11
4.20655e-11
3.67243e-11
3.21651e-11
2.83569e-11
2.52359e-11
2.27189e-11
8.09672e-11
8.03483e-11
7.91186e-11
7.72955e-11
7.49066e-11
7.19926e-11
6.86089e-11
6.48267e-11
6.07328e-11
5.6428e-11
5.20227e-11
4.76307e-11
4.33618e-11
3.93137e-11
3.55659e-11
3.21744e-11
2.91706e-11
2.65623e-11
2.4338e-11
2.24715e-11
5.81081e-11
5.77654e-11
5.70835e-11
5.607e-11
5.47373e-11
5.31038e-11
5.11949e-11
4.90438e-11
4.66922e-11
4.41891e-11
4.15898e-11
3.89533e-11
3.63392e-11
3.38038e-11
3.13965e-11
2.91573e-11
2.71149e-11
2.5286e-11
2.36766e-11
2.22829e-11
4.52024e-11
4.50004e-11
4.45982e-11
4.3999e-11
4.32087e-11
4.22359e-11
4.10928e-11
3.97959e-11
3.8366e-11
3.68283e-11
3.52121e-11
3.35494e-11
3.18739e-11
3.02189e-11
2.86155e-11
2.70911e-11
2.5668e-11
2.43623e-11
2.31844e-11
2.21388e-11
3.74609e-11
3.73355e-11
3.70856e-11
3.67126e-11
3.62193e-11
3.56101e-11
3.4891e-11
3.40704e-11
3.31594e-11
3.21715e-11
3.1123e-11
3.00319e-11
2.89182e-11
2.7802e-11
2.67032e-11
2.56404e-11
2.46298e-11
2.36849e-11
2.28155e-11
2.20285e-11
3.25791e-11
3.24979e-11
3.23358e-11
3.20935e-11
3.17725e-11
3.13749e-11
3.09039e-11
3.03641e-11
2.97613e-11
2.91035e-11
2.83997e-11
2.76609e-11
2.68989e-11
2.61266e-11
2.53567e-11
2.4602e-11
2.3874e-11
2.3183e-11
2.25375e-11
2.19439e-11
2.93733e-11
2.93188e-11
2.921e-11
2.90472e-11
2.88311e-11
2.85629e-11
2.82443e-11
2.78778e-11
2.74669e-11
2.70161e-11
2.6531e-11
2.60181e-11
2.5485e-11
2.49399e-11
2.43913e-11
2.38478e-11
2.33176e-11
2.28085e-11
2.23271e-11
2.18791e-11
2.71987e-11
2.71611e-11
2.7086e-11
2.69736e-11
2.68242e-11
2.66385e-11
2.64174e-11
2.61624e-11
2.58756e-11
2.55598e-11
2.52183e-11
2.48555e-11
2.4476e-11
2.40854e-11
2.36894e-11
2.32938e-11
2.29047e-11
2.25276e-11
2.21676e-11
2.18293e-11
2.56855e-11
2.5659e-11
2.56061e-11
2.55268e-11
2.54213e-11
2.529e-11
2.51335e-11
2.49527e-11
2.47489e-11
2.45238e-11
2.42796e-11
2.40191e-11
2.37455e-11
2.34624e-11
2.31737e-11
2.28837e-11
2.25964e-11
2.23161e-11
2.20465e-11
2.17913e-11
2.46114e-11
2.45924e-11
2.45544e-11
2.44976e-11
2.44219e-11
2.43277e-11
2.42152e-11
2.40851e-11
2.39383e-11
2.37757e-11
2.3599e-11
2.341e-11
2.32108e-11
2.30039e-11
2.2792e-11
2.25782e-11
2.23653e-11
2.21565e-11
2.19546e-11
2.17622e-11
2.38372e-11
2.38235e-11
2.37959e-11
2.37546e-11
2.36997e-11
2.36313e-11
2.35496e-11
2.3455e-11
2.33481e-11
2.32296e-11
2.31006e-11
2.29624e-11
2.28163e-11
2.26642e-11
2.2508e-11
2.23498e-11
2.21917e-11
2.2036e-11
2.18847e-11
2.174e-11
2.32729e-11
2.32628e-11
2.32427e-11
2.32125e-11
2.31722e-11
2.31221e-11
2.30623e-11
2.2993e-11
2.29146e-11
2.28277e-11
2.27329e-11
2.26312e-11
2.25237e-11
2.24114e-11
2.22959e-11
2.21786e-11
2.20611e-11
2.19449e-11
2.18317e-11
2.17231e-11
2.28582e-11
2.28507e-11
2.28359e-11
2.28136e-11
2.2784e-11
2.27471e-11
2.2703e-11
2.26519e-11
2.25942e-11
2.25301e-11
2.24603e-11
2.23852e-11
2.23058e-11
2.22227e-11
2.21372e-11
2.20501e-11
2.19627e-11
2.18762e-11
2.17916e-11
2.17102e-11
2.25515e-11
2.2546e-11
2.2535e-11
2.25186e-11
2.24967e-11
2.24694e-11
2.24368e-11
2.23991e-11
2.23564e-11
2.23091e-11
2.22574e-11
2.2202e-11
2.21432e-11
2.20817e-11
2.20183e-11
2.19537e-11
2.18888e-11
2.18244e-11
2.17613e-11
2.17005e-11
2.2324e-11
2.23199e-11
2.23118e-11
2.22996e-11
2.22833e-11
2.22631e-11
2.2239e-11
2.22111e-11
2.21795e-11
2.21445e-11
2.21063e-11
2.20652e-11
2.20217e-11
2.19762e-11
2.19293e-11
2.18814e-11
2.18332e-11
2.17853e-11
2.17384e-11
2.16931e-11
2.21548e-11
2.21518e-11
2.21457e-11
2.21367e-11
2.21246e-11
2.21097e-11
2.20918e-11
2.20711e-11
2.20477e-11
2.20218e-11
2.19936e-11
2.19632e-11
2.1931e-11
2.18974e-11
2.18626e-11
2.18272e-11
2.17915e-11
2.1756e-11
2.17212e-11
2.16876e-11
2.20289e-11
2.20266e-11
2.20221e-11
2.20154e-11
2.20065e-11
2.19954e-11
2.19822e-11
2.19669e-11
2.19496e-11
2.19304e-11
2.19096e-11
2.18871e-11
2.18634e-11
2.18385e-11
2.18128e-11
2.17867e-11
2.17603e-11
2.17341e-11
2.17083e-11
2.16834e-11
2.19352e-11
2.19335e-11
2.19302e-11
2.19252e-11
2.19186e-11
2.19104e-11
2.19007e-11
2.18893e-11
2.18766e-11
2.18624e-11
2.1847e-11
2.18305e-11
2.1813e-11
2.17946e-11
2.17757e-11
2.17564e-11
2.1737e-11
2.17177e-11
2.16987e-11
2.16803e-11
2.18656e-11
2.18643e-11
2.18619e-11
2.18582e-11
2.18534e-11
2.18473e-11
2.18401e-11
2.18317e-11
2.18223e-11
2.18119e-11
2.18006e-11
2.17884e-11
2.17755e-11
2.1762e-11
2.17481e-11
2.1734e-11
2.17197e-11
2.17055e-11
2.16915e-11
2.16779e-11
2.1814e-11
2.18131e-11
2.18112e-11
2.18085e-11
2.18049e-11
2.18005e-11
2.17952e-11
2.1789e-11
2.17821e-11
2.17745e-11
2.17661e-11
2.17572e-11
2.17477e-11
2.17379e-11
2.17277e-11
2.17173e-11
2.17068e-11
2.16964e-11
2.16861e-11
2.16762e-11
2.17758e-11
2.17751e-11
2.17738e-11
2.17718e-11
2.17692e-11
2.17659e-11
2.1762e-11
2.17575e-11
2.17524e-11
2.17468e-11
2.17407e-11
2.17341e-11
2.17272e-11
2.172e-11
2.17125e-11
2.17049e-11
2.16973e-11
2.16897e-11
2.16822e-11
2.16749e-11
2.17477e-11
2.17472e-11
2.17462e-11
2.17448e-11
2.17428e-11
2.17404e-11
2.17376e-11
2.17343e-11
2.17305e-11
2.17264e-11
2.1722e-11
2.17172e-11
2.17121e-11
2.17069e-11
2.17014e-11
2.16959e-11
2.16903e-11
2.16848e-11
2.16793e-11
2.1674e-11
2.17271e-11
2.17267e-11
2.1726e-11
2.1725e-11
2.17235e-11
2.17218e-11
2.17197e-11
2.17173e-11
2.17145e-11
2.17115e-11
2.17083e-11
2.17048e-11
2.17011e-11
2.16973e-11
2.16933e-11
2.16893e-11
2.16852e-11
2.16811e-11
2.16772e-11
2.16733e-11
2.17121e-11
2.17119e-11
2.17113e-11
2.17106e-11
2.17095e-11
2.17082e-11
2.17067e-11
2.17049e-11
2.17029e-11
2.17007e-11
2.16983e-11
2.16958e-11
2.16931e-11
2.16903e-11
2.16874e-11
2.16844e-11
2.16815e-11
2.16785e-11
2.16756e-11
2.16728e-11
2.17014e-11
2.17012e-11
2.17008e-11
2.17002e-11
2.16995e-11
2.16985e-11
2.16974e-11
2.16961e-11
2.16946e-11
2.1693e-11
2.16912e-11
2.16893e-11
2.16873e-11
2.16853e-11
2.16832e-11
2.1681e-11
2.16788e-11
2.16766e-11
2.16745e-11
2.16725e-11
2.16938e-11
2.16937e-11
2.16934e-11
2.1693e-11
2.16924e-11
2.16917e-11
2.16908e-11
2.16898e-11
2.16887e-11
2.16875e-11
2.16862e-11
2.16848e-11
2.16833e-11
2.16818e-11
2.16802e-11
2.16786e-11
2.16769e-11
2.16753e-11
2.16737e-11
2.16722e-11
2.16887e-11
2.16886e-11
2.16884e-11
2.16881e-11
2.16876e-11
2.16871e-11
2.16864e-11
2.16856e-11
2.16848e-11
2.16839e-11
2.16828e-11
2.16818e-11
2.16806e-11
2.16794e-11
2.16782e-11
2.16769e-11
2.16757e-11
2.16744e-11
2.16732e-11
2.1672e-11
2.16856e-11
2.16855e-11
2.16853e-11
2.16851e-11
2.16847e-11
2.16842e-11
2.16837e-11
2.16831e-11
2.16824e-11
2.16816e-11
2.16808e-11
2.16799e-11
2.16789e-11
2.1678e-11
2.1677e-11
2.16759e-11
2.16749e-11
2.16739e-11
2.16729e-11
2.16719e-11
2.16841e-11
2.1684e-11
2.16839e-11
2.16836e-11
2.16833e-11
2.16829e-11
2.16824e-11
2.16818e-11
2.16812e-11
2.16805e-11
2.16798e-11
2.1679e-11
2.16781e-11
2.16773e-11
2.16764e-11
2.16755e-11
2.16745e-11
2.16736e-11
2.16727e-11
2.16719e-11
)
;

boundaryField
{
    topWall
    {
        type            zeroGradient;
    }
    bottomWall
    {
        type            zeroGradient;
    }
    sideWallL
    {
        type            symmetry;
    }
    sideWallR
    {
        type            zeroGradient;
    }
    frontAndBack
    {
        type            empty;
    }
}


// ************************************************************************* //
