/*--------------------------------*- C++ -*----------------------------------*\
  =========                 |
  \\      /  F ield         | OpenFOAM: The Open Source CFD Toolbox
   \\    /   O peration     | Website:  https://openfoam.org
    \\  /    A nd           | Version:  7
     \\/     M anipulation  |
\*---------------------------------------------------------------------------*/
FoamFile
{
    version     2.0;
    format      ascii;
    class       volScalarField;
    location    "34";
    object      rhot2;
}
// * * * * * * * * * * * * * * * * * * * * * * * * * * * * * * * * * * * * * //

dimensions      [1 -3 0 0 0 0 0];

internalField   nonuniform List<scalar> 
900
(
0.0432481
0.0431471
0.0429395
0.0426143
0.0421536
0.0415323
0.0407161
0.0396595
0.0383038
0.0365734
0.0343741
0.0315911
0.0280928
0.0237466
0.018468
0.0123575
0.00606105
0.00137539
2.76652e-05
1.17026e-11
0.000396332
0.000393185
0.000386778
0.000376888
0.000363189
0.00034528
0.000322716
0.000295087
0.000262145
0.000223998
0.000181415
0.000136192
9.15119e-05
5.19447e-05
2.25057e-05
6.1426e-06
7.09218e-07
1.37987e-08
4.04934e-12
1.25067e-20
3.95768e-06
3.90082e-06
3.78625e-06
3.61253e-06
3.37827e-06
3.08308e-06
2.7291e-06
2.32298e-06
1.87836e-06
1.418e-06
9.74496e-07
5.87175e-07
2.92801e-07
1.10216e-07
2.6872e-08
3.24757e-09
1.18887e-10
5.07943e-13
3.76568e-17
1.58383e-24
3.82139e-08
3.73972e-08
3.57706e-08
3.33537e-08
3.01898e-08
2.63627e-08
2.20159e-08
1.73702e-08
1.27297e-08
8.46064e-09
4.92932e-09
2.39623e-09
9.0326e-10
2.36183e-10
3.59966e-11
2.42016e-12
4.55773e-14
1.14947e-16
1.27431e-20
2.40941e-26
3.70586e-10
3.60031e-10
3.39265e-10
3.09047e-10
2.70685e-10
2.26181e-10
1.78336e-10
1.30694e-10
8.71972e-11
5.14724e-11
2.58365e-11
1.04293e-11
3.12698e-12
6.20985e-13
6.9125e-14
3.38093e-15
5.12395e-17
1.50441e-19
5.19239e-23
2.57229e-27
3.81668e-12
3.68226e-12
3.42093e-12
3.0483e-12
2.58898e-12
2.07691e-12
1.55407e-12
1.06631e-12
6.55671e-13
3.50302e-13
1.55964e-13
5.46831e-14
1.39792e-14
2.3464e-15
2.24449e-16
1.015e-17
1.71948e-19
8.51955e-22
1.0903e-24
6.79216e-28
4.42026e-14
4.23846e-14
3.88878e-14
3.39922e-14
2.81147e-14
2.17881e-14
1.56108e-14
1.01575e-14
5.86221e-15
2.90944e-15
1.1925e-15
3.82918e-16
8.99719e-17
1.41766e-17
1.34383e-18
6.74281e-20
1.56713e-21
1.53555e-23
6.86057e-26
2.89879e-28
6.08041e-16
5.80164e-16
5.27029e-16
4.53765e-16
3.67687e-16
2.77617e-16
1.92708e-16
1.20833e-16
6.69018e-17
3.17734e-17
1.24785e-17
3.87155e-18
8.97179e-19
1.4525e-19
1.5231e-20
9.57541e-22
3.3985e-23
6.81868e-25
9.23216e-27
1.63744e-28
1.04387e-17
9.92607e-18
8.95566e-18
7.63273e-18
6.10283e-18
4.53383e-18
3.08976e-18
1.90007e-18
1.03277e-18
4.8362e-19
1.89116e-19
5.95049e-20
1.44329e-20
2.57433e-21
3.22087e-22
2.72068e-23
1.53537e-24
6.12543e-26
2.13793e-27
1.10171e-28
2.33278e-19
2.21432e-19
1.99105e-19
1.68883e-19
1.34262e-19
9.91566e-20
6.72439e-20
4.12666e-20
2.25099e-20
1.06821e-20
4.30088e-21
1.4282e-21
3.79431e-22
7.82609e-23
1.22258e-23
1.43173e-24
1.28364e-25
9.59137e-27
7.34542e-28
8.31097e-29
7.01435e-21
6.65758e-21
5.9864e-21
5.08039e-21
4.04587e-21
2.99984e-21
2.05015e-21
1.27552e-21
7.11848e-22
3.50328e-22
1.49176e-22
5.3867e-23
1.61742e-23
3.97304e-24
7.92046e-25
1.29256e-25
1.79622e-26
2.33329e-27
3.36622e-28
6.77487e-29
2.90465e-22
2.76098e-22
2.49057e-22
2.1251e-22
1.70672e-22
1.28164e-22
8.92396e-23
5.704e-23
3.30829e-23
1.71895e-23
7.89448e-24
3.16323e-24
1.09393e-24
3.24642e-25
8.29915e-26
1.86525e-26
3.86381e-27
8.03707e-28
1.90272e-28
5.82906e-29
1.67921e-23
1.60068e-23
1.4525e-23
1.2513e-23
1.01925e-23
7.80794e-24
5.58801e-24
3.70759e-24
2.2611e-24
1.25619e-24
6.30298e-25
2.8359e-25
1.13966e-25
4.09842e-26
1.33401e-26
4.03327e-27
1.1858e-27
3.62822e-28
1.25226e-28
5.21184e-29
1.36208e-24
1.30352e-24
1.19254e-24
1.04073e-24
8.63631e-25
6.78661e-25
5.02526e-25
3.48679e-25
2.25378e-25
1.3495e-25
7.45064e-26
3.78316e-26
1.76853e-26
7.66286e-27
3.12387e-27
1.22949e-27
4.85216e-28
2.01291e-28
9.20178e-29
4.79158e-29
1.54744e-25
1.48802e-25
1.37479e-25
1.21843e-25
1.03342e-25
8.3632e-26
6.43561e-26
4.69171e-26
3.2289e-26
2.09169e-26
1.27341e-26
7.29065e-27
3.94161e-27
2.03028e-27
1.01137e-27
4.97902e-28
2.48989e-28
1.30297e-28
7.32423e-29
4.49634e-29
2.44504e-26
2.36377e-26
2.20797e-26
1.99048e-26
1.72902e-26
1.44432e-26
1.15773e-26
8.88615e-27
6.51969e-27
4.56829e-27
3.05844e-27
1.96139e-27
1.21131e-27
7.26736e-28
4.28913e-28
2.53032e-28
1.5193e-28
9.45098e-29
6.17931e-29
4.28402e-29
5.30777e-27
5.16031e-27
4.87571e-27
4.4739e-27
3.98278e-27
3.43586e-27
2.86896e-27
2.31653e-27
1.80785e-27
1.36409e-27
9.96645e-28
7.07321e-28
4.90091e-28
3.33936e-28
2.25843e-28
1.53251e-28
1.05528e-28
7.45166e-29
5.44065e-29
4.12865e-29
1.55253e-27
1.51777e-27
1.45024e-27
1.35382e-27
1.23407e-27
1.09778e-27
9.5252e-28
8.05962e-28
6.6516e-28
5.3591e-28
4.22265e-28
3.26332e-28
2.48371e-28
1.87169e-28
1.40549e-28
1.05907e-28
8.06449e-29
6.24524e-29
4.94357e-29
4.01347e-29
5.94209e-28
5.83851e-28
5.63609e-28
5.34411e-28
4.97602e-28
4.54882e-28
4.082e-28
3.5963e-28
3.11209e-28
2.64778e-28
2.21835e-28
1.8344e-28
1.50169e-28
1.22154e-28
9.91545e-29
8.06779e-29
6.60946e-29
5.47394e-29
4.59827e-29
3.92724e-29
2.86254e-28
2.82479e-28
2.75062e-28
2.64268e-28
2.50486e-28
2.34219e-28
2.16064e-28
1.96682e-28
1.76759e-28
1.5696e-28
1.37887e-28
1.20035e-28
1.03766e-28
8.93018e-29
7.67245e-29
6.60019e-29
5.70147e-29
4.95894e-29
4.35262e-29
3.86224e-29
1.66138e-28
1.64512e-28
1.61304e-28
1.56601e-28
1.50534e-28
1.43274e-28
1.35032e-28
1.26049e-28
1.16588e-28
1.06917e-28
9.72997e-29
8.79731e-29
7.91387e-29
7.09511e-29
6.35143e-29
5.68822e-29
5.10648e-29
4.60366e-29
4.17471e-29
3.813e-29
1.11344e-28
1.10544e-28
1.0896e-28
1.06625e-28
1.03587e-28
9.99131e-29
9.56864e-29
9.10053e-29
8.59813e-29
8.07342e-29
7.53871e-29
7.00602e-29
6.48642e-29
5.98954e-29
5.5231e-29
5.09274e-29
4.70201e-29
4.3525e-29
4.04413e-29
3.77557e-29
8.30845e-29
8.26478e-29
8.17809e-29
8.04971e-29
7.88166e-29
7.67677e-29
7.43864e-29
7.1717e-29
6.88109e-29
6.57259e-29
6.2524e-29
5.92688e-29
5.6023e-29
5.2845e-29
4.97868e-29
4.68918e-29
4.41939e-29
4.17165e-29
3.94736e-29
3.74706e-29
6.70703e-29
6.68122e-29
6.62987e-29
6.55359e-29
6.45327e-29
6.33021e-29
6.1861e-29
6.02309e-29
5.84373e-29
5.651e-29
5.44822e-29
5.23891e-29
5.02675e-29
4.81531e-29
4.60803e-29
4.40797e-29
4.2178e-29
4.03965e-29
3.87513e-29
3.72532e-29
5.73238e-29
5.71617e-29
5.68389e-29
5.63581e-29
5.57237e-29
5.4942e-29
5.40216e-29
5.29734e-29
5.18111e-29
5.05508e-29
4.92114e-29
4.78133e-29
4.63785e-29
4.49298e-29
4.34896e-29
4.20791e-29
4.07181e-29
3.94235e-29
3.82096e-29
3.70875e-29
5.10646e-29
5.09582e-29
5.07459e-29
5.04292e-29
5.00102e-29
4.94924e-29
4.88802e-29
4.81796e-29
4.73983e-29
4.65457e-29
4.56327e-29
4.46718e-29
4.36768e-29
4.26622e-29
4.1643e-29
4.06339e-29
3.96489e-29
3.87012e-29
3.7802e-29
3.69611e-29
4.68801e-29
4.68078e-29
4.66634e-29
4.64478e-29
4.61621e-29
4.58081e-29
4.53884e-29
4.49065e-29
4.4367e-29
4.37753e-29
4.31383e-29
4.24639e-29
4.17609e-29
4.10389e-29
4.03078e-29
3.95781e-29
3.88598e-29
3.81624e-29
3.74949e-29
3.6865e-29
4.39976e-29
4.39472e-29
4.38465e-29
4.36961e-29
4.34965e-29
4.32489e-29
4.29548e-29
4.26162e-29
4.2236e-29
4.18178e-29
4.13658e-29
4.08851e-29
4.03816e-29
3.98617e-29
3.93324e-29
3.88008e-29
3.82741e-29
3.77594e-29
3.72633e-29
3.67919e-29
4.19675e-29
4.19317e-29
4.18603e-29
4.17534e-29
4.16116e-29
4.14354e-29
4.12259e-29
4.09844e-29
4.07126e-29
4.04129e-29
4.00882e-29
3.97418e-29
3.93778e-29
3.90004e-29
3.86146e-29
3.82254e-29
3.78379e-29
3.74573e-29
3.70886e-29
3.67364e-29
4.05144e-29
4.04887e-29
4.04374e-29
4.03605e-29
4.02585e-29
4.01316e-29
3.99806e-29
3.98064e-29
3.96101e-29
3.93934e-29
3.91581e-29
3.89066e-29
3.86416e-29
3.83662e-29
3.80838e-29
3.77979e-29
3.75124e-29
3.72309e-29
3.69571e-29
3.66944e-29
3.94623e-29
3.94437e-29
3.94064e-29
3.93506e-29
3.92766e-29
3.91845e-29
3.90748e-29
3.89482e-29
3.88055e-29
3.86477e-29
3.84762e-29
3.82927e-29
3.8099e-29
3.78974e-29
3.76901e-29
3.74799e-29
3.72693e-29
3.70612e-29
3.68581e-29
3.66627e-29
3.86944e-29
3.86808e-29
3.86536e-29
3.86129e-29
3.85588e-29
3.84916e-29
3.84115e-29
3.83191e-29
3.82148e-29
3.80995e-29
3.79741e-29
3.78398e-29
3.76979e-29
3.755e-29
3.73978e-29
3.72431e-29
3.70879e-29
3.69341e-29
3.67838e-29
3.66389e-29
3.81309e-29
3.81209e-29
3.8101e-29
3.80712e-29
3.80316e-29
3.79824e-29
3.79238e-29
3.78561e-29
3.77797e-29
3.76953e-29
3.76034e-29
3.7505e-29
3.74009e-29
3.72924e-29
3.71806e-29
3.70668e-29
3.69526e-29
3.68392e-29
3.67282e-29
3.6621e-29
3.77161e-29
3.77088e-29
3.76942e-29
3.76723e-29
3.76433e-29
3.76072e-29
3.75642e-29
3.75146e-29
3.74587e-29
3.73968e-29
3.73295e-29
3.72573e-29
3.7181e-29
3.71014e-29
3.70193e-29
3.69358e-29
3.68518e-29
3.67684e-29
3.66867e-29
3.66076e-29
3.74105e-29
3.74051e-29
3.73944e-29
3.73783e-29
3.7357e-29
3.73306e-29
3.7299e-29
3.72627e-29
3.72217e-29
3.71763e-29
3.7127e-29
3.70742e-29
3.70183e-29
3.696e-29
3.68998e-29
3.68386e-29
3.6777e-29
3.67158e-29
3.66558e-29
3.65976e-29
3.71852e-29
3.71813e-29
3.71734e-29
3.71616e-29
3.7146e-29
3.71266e-29
3.71035e-29
3.70769e-29
3.70469e-29
3.70137e-29
3.69776e-29
3.69389e-29
3.68981e-29
3.68554e-29
3.68114e-29
3.67667e-29
3.67216e-29
3.66768e-29
3.66328e-29
3.65902e-29
3.70195e-29
3.70166e-29
3.70108e-29
3.70022e-29
3.69907e-29
3.69765e-29
3.69596e-29
3.69401e-29
3.69182e-29
3.68939e-29
3.68676e-29
3.68393e-29
3.68095e-29
3.67784e-29
3.67463e-29
3.67136e-29
3.66807e-29
3.6648e-29
3.66159e-29
3.65847e-29
3.68978e-29
3.68957e-29
3.68915e-29
3.68852e-29
3.68768e-29
3.68664e-29
3.6854e-29
3.68398e-29
3.68238e-29
3.68061e-29
3.67868e-29
3.67662e-29
3.67445e-29
3.67218e-29
3.66984e-29
3.66746e-29
3.66506e-29
3.66268e-29
3.66034e-29
3.65807e-29
3.68089e-29
3.68074e-29
3.68043e-29
3.67997e-29
3.67936e-29
3.6786e-29
3.67769e-29
3.67665e-29
3.67548e-29
3.67419e-29
3.67279e-29
3.67129e-29
3.6697e-29
3.66805e-29
3.66635e-29
3.66461e-29
3.66287e-29
3.66113e-29
3.65943e-29
3.65778e-29
3.67445e-29
3.67433e-29
3.67411e-29
3.67377e-29
3.67332e-29
3.67276e-29
3.6721e-29
3.67134e-29
3.67048e-29
3.66954e-29
3.66851e-29
3.66742e-29
3.66626e-29
3.66505e-29
3.66381e-29
3.66255e-29
3.66127e-29
3.66001e-29
3.65877e-29
3.65756e-29
3.66982e-29
3.66974e-29
3.66957e-29
3.66932e-29
3.66899e-29
3.66858e-29
3.66809e-29
3.66753e-29
3.6669e-29
3.6662e-29
3.66545e-29
3.66464e-29
3.66379e-29
3.66291e-29
3.66199e-29
3.66107e-29
3.66013e-29
3.6592e-29
3.65829e-29
3.65741e-29
3.66658e-29
3.66651e-29
3.66639e-29
3.6662e-29
3.66595e-29
3.66564e-29
3.66528e-29
3.66486e-29
3.66439e-29
3.66387e-29
3.6633e-29
3.6627e-29
3.66206e-29
3.6614e-29
3.66072e-29
3.66003e-29
3.65933e-29
3.65864e-29
3.65796e-29
3.6573e-29
3.66439e-29
3.66434e-29
3.66424e-29
3.6641e-29
3.66391e-29
3.66367e-29
3.66338e-29
3.66306e-29
3.66269e-29
3.66229e-29
3.66186e-29
3.66139e-29
3.6609e-29
3.66039e-29
3.65986e-29
3.65933e-29
3.65879e-29
3.65826e-29
3.65774e-29
3.65723e-29
3.66305e-29
3.663e-29
3.66292e-29
3.66281e-29
3.66265e-29
3.66245e-29
3.66222e-29
3.66195e-29
3.66165e-29
3.66132e-29
3.66097e-29
3.66058e-29
3.66018e-29
3.65977e-29
3.65934e-29
3.6589e-29
3.65846e-29
3.65803e-29
3.6576e-29
3.65718e-29
3.6624e-29
3.66237e-29
3.6623e-29
3.66219e-29
3.66205e-29
3.66187e-29
3.66166e-29
3.66143e-29
3.66116e-29
3.66086e-29
3.66054e-29
3.6602e-29
3.65984e-29
3.65947e-29
3.65909e-29
3.6587e-29
3.6583e-29
3.65792e-29
3.65753e-29
3.65716e-29
)
;

boundaryField
{
    topWall
    {
        type            zeroGradient;
    }
    bottomWall
    {
        type            zeroGradient;
    }
    sideWallL
    {
        type            symmetry;
    }
    sideWallR
    {
        type            zeroGradient;
    }
    frontAndBack
    {
        type            empty;
    }
}


// ************************************************************************* //
