/*--------------------------------*- C++ -*----------------------------------*\
  =========                 |
  \\      /  F ield         | OpenFOAM: The Open Source CFD Toolbox
   \\    /   O peration     | Website:  https://openfoam.org
    \\  /    A nd           | Version:  7
     \\/     M anipulation  |
\*---------------------------------------------------------------------------*/
FoamFile
{
    version     2.0;
    format      ascii;
    class       volScalarField;
    location    "34";
    object      rhot1;
}
// * * * * * * * * * * * * * * * * * * * * * * * * * * * * * * * * * * * * * //

dimensions      [1 -3 0 0 0 0 0];

internalField   nonuniform List<scalar> 
900
(
1.28935
1.28789
1.2849
1.2802
1.2735
1.2644
1.25234
1.23653
1.21591
1.189
1.15379
1.10744
1.04593
0.963483
0.851655
0.69838
0.489744
0.23197
0.0316801
1.72226e-05
0.123313
0.122813
0.121788
0.12019
0.117943
0.11494
0.111046
0.106092
0.0998752
0.0921751
0.0827716
0.0715011
0.0583606
0.0436961
0.0284907
0.014661
0.00485502
0.000645568
1.00048e-05
4.33972e-10
0.0117361
0.0116493
0.0114727
0.0111999
0.0108216
0.0103263
0.00970068
0.00893201
0.00801078
0.00693612
0.00572347
0.00441513
0.00309119
0.00187387
0.00090933
0.000307996
5.65726e-05
3.45596e-06
2.6411e-08
4.33918e-12
0.00109215
0.00108012
0.00105577
0.00101857
0.000967824
0.000902844
0.000823178
0.000728999
0.000621628
0.000504188
0.000382246
0.000264116
0.000160195
8.05579e-05
3.07216e-05
7.70252e-06
1.00587e-06
4.68546e-08
4.3913e-10
5.04881e-13
0.000101764
0.000100267
9.72585e-05
9.27152e-05
8.66232e-05
7.90012e-05
6.99376e-05
5.96353e-05
4.84618e-05
3.69863e-05
2.59774e-05
1.63172e-05
8.80055e-06
3.84304e-06
1.24733e-06
2.6558e-07
3.10089e-08
1.55972e-09
2.61097e-11
1.59585e-13
9.77422e-06
9.59613e-06
9.24058e-06
8.70986e-06
8.01005e-06
7.15406e-06
6.16549e-06
5.08261e-06
3.96093e-06
2.8722e-06
1.89692e-06
1.1084e-06
5.50824e-07
2.20628e-07
6.62365e-08
1.35415e-08
1.67279e-09
1.09899e-10
3.59485e-12
8.03042e-14
9.96535e-07
9.75295e-07
9.33156e-07
8.70928e-07
7.90122e-07
6.93283e-07
5.8432e-07
4.68743e-07
3.53601e-07
2.46885e-07
1.56267e-07
8.72755e-08
4.15299e-08
1.61003e-08
4.8095e-09
1.03656e-09
1.50468e-10
1.40062e-11
8.68231e-13
5.17275e-14
1.10918e-07
1.08279e-07
1.03072e-07
9.54542e-08
8.56903e-08
7.41877e-08
6.15183e-08
4.84201e-08
3.57549e-08
2.44048e-08
1.51109e-08
8.29083e-09
3.9165e-09
1.53916e-09
4.84014e-10
1.17037e-10
2.10913e-11
2.83194e-12
3.09472e-13
3.84967e-14
1.38238e-08
1.34712e-08
1.27785e-08
1.17722e-08
1.04957e-08
9.01133e-09
7.40187e-09
5.76775e-09
4.21862e-09
2.85841e-09
1.76571e-09
9.75612e-10
4.71661e-10
1.94738e-10
6.70138e-11
1.8843e-11
4.30388e-12
8.21174e-13
1.45656e-13
3.1356e-14
1.97124e-09
1.91921e-09
1.81732e-09
1.67007e-09
1.48456e-09
1.27069e-09
1.04106e-09
8.10302e-10
5.93688e-10
4.04969e-10
2.53892e-10
1.44185e-10
7.30188e-11
3.24685e-11
1.25148e-11
4.15818e-12
1.20326e-12
3.16396e-13
8.39145e-14
2.70953e-14
3.27114e-10
3.18463e-10
3.01552e-10
2.77186e-10
2.46604e-10
2.11495e-10
1.73951e-10
1.36337e-10
1.01057e-10
7.0222e-11
4.52996e-11
2.68491e-11
1.44736e-11
7.03654e-12
3.07196e-12
1.20929e-12
4.37764e-13
1.52723e-13
5.6049e-14
2.43716e-14
6.39267e-11
6.22825e-11
5.90706e-11
5.44465e-11
4.86475e-11
4.19916e-11
3.48667e-11
2.77054e-11
2.09429e-11
1.49612e-11
1.00309e-11
6.26955e-12
3.63257e-12
1.94506e-12
9.6417e-13
4.46963e-13
1.98415e-13
8.80836e-14
4.17045e-14
2.25432e-14
1.48153e-11
1.4455e-11
1.3751e-11
1.27366e-11
1.14622e-11
9.99484e-12
8.41594e-12
6.81586e-12
5.28584e-12
3.90728e-12
2.7407e-12
1.81741e-12
1.13692e-12
6.71497e-13
3.76564e-13
2.03118e-13
1.07851e-13
5.83616e-14
3.35661e-14
2.12716e-14
4.08208e-12
3.99083e-12
3.81228e-12
3.55439e-12
3.22918e-12
2.85261e-12
2.44403e-12
2.02504e-12
1.61774e-12
1.24241e-12
9.15039e-13
6.45402e-13
4.36137e-13
2.83305e-13
1.78227e-13
1.10012e-13
6.79281e-14
4.29943e-14
2.86007e-14
2.03635e-14
1.33587e-12
1.3092e-12
1.25691e-12
1.18112e-12
1.08507e-12
9.73006e-13
8.50153e-13
7.22391e-13
5.95849e-13
4.76345e-13
3.68765e-13
2.76528e-13
2.01262e-13
1.42807e-13
9.95368e-14
6.8908e-14
4.80581e-14
3.42973e-14
2.54009e-14
1.97023e-14
5.17291e-13
5.08348e-13
4.90775e-13
4.65206e-13
4.326e-13
3.9424e-13
3.51703e-13
3.06796e-13
2.61445e-13
2.17544e-13
1.7678e-13
1.40467e-13
1.09426e-13
8.39473e-14
6.38279e-14
4.84979e-14
3.71754e-14
2.90203e-14
2.32515e-14
1.92137e-14
2.35519e-13
2.32111e-13
2.25399e-13
2.1559e-13
2.03002e-13
1.88062e-13
1.71302e-13
1.53342e-13
1.34856e-13
1.16535e-13
9.90233e-14
8.28701e-14
6.84792e-14
5.60833e-14
4.57417e-14
3.73639e-14
3.07507e-14
2.5642e-14
2.17614e-14
1.88487e-14
1.24827e-13
1.23369e-13
1.20488e-13
1.16262e-13
1.10803e-13
1.0427e-13
9.68585e-14
8.8803e-14
8.0365e-14
7.18197e-14
6.34379e-14
5.54655e-14
4.81048e-14
4.15003e-14
3.57327e-14
3.08203e-14
2.67292e-14
2.3388e-14
2.07031e-14
1.85738e-14
7.58898e-14
7.51977e-14
7.38279e-14
7.18095e-14
6.91877e-14
6.60247e-14
6.24e-14
5.84097e-14
5.41639e-14
4.97821e-14
4.53867e-14
4.10952e-14
3.70123e-14
3.32232e-14
2.97883e-14
2.67423e-14
2.4095e-14
2.18355e-14
1.99376e-14
1.83654e-14
5.19083e-14
5.15492e-14
5.08369e-14
4.97835e-14
4.84082e-14
4.67374e-14
4.48055e-14
4.26551e-14
4.0336e-14
3.79038e-14
3.54177e-14
3.2937e-14
3.05181e-14
2.82108e-14
2.60556e-14
2.40819e-14
2.23077e-14
2.07398e-14
1.9376e-14
1.82069e-14
3.90806e-14
3.88795e-14
3.84801e-14
3.78876e-14
3.71104e-14
3.61608e-14
3.50544e-14
3.38114e-14
3.24556e-14
3.10148e-14
2.95191e-14
2.80001e-14
2.64893e-14
2.50162e-14
2.36071e-14
2.22834e-14
2.10615e-14
1.99519e-14
1.89598e-14
1.80859e-14
3.17003e-14
3.15805e-14
3.13419e-14
3.09872e-14
3.05203e-14
2.99469e-14
2.92748e-14
2.85138e-14
2.76763e-14
2.67766e-14
2.58311e-14
2.48572e-14
2.38731e-14
2.28969e-14
2.19454e-14
2.10337e-14
2.01744e-14
1.93772e-14
1.86488e-14
1.79934e-14
2.71939e-14
2.71187e-14
2.69688e-14
2.67454e-14
2.64504e-14
2.60869e-14
2.56586e-14
2.51708e-14
2.463e-14
2.40441e-14
2.34224e-14
2.27749e-14
2.21125e-14
2.14465e-14
2.07878e-14
2.01469e-14
1.95328e-14
1.89535e-14
1.84153e-14
1.79226e-14
2.43076e-14
2.42583e-14
2.41602e-14
2.40137e-14
2.38198e-14
2.35801e-14
2.32966e-14
2.29722e-14
2.26106e-14
2.22163e-14
2.17947e-14
2.13518e-14
2.08945e-14
2.04298e-14
1.9965e-14
1.95072e-14
1.90632e-14
1.86387e-14
1.82391e-14
1.78685e-14
2.23876e-14
2.23543e-14
2.22879e-14
2.21887e-14
2.20571e-14
2.18941e-14
2.17008e-14
2.14789e-14
2.12304e-14
2.09581e-14
2.06652e-14
2.03557e-14
2.00336e-14
1.97038e-14
1.93711e-14
1.90403e-14
1.87163e-14
1.84036e-14
1.8106e-14
1.78271e-14
2.1072e-14
2.10489e-14
2.10028e-14
2.09339e-14
2.08425e-14
2.0729e-14
2.05941e-14
2.04389e-14
2.02645e-14
2.00727e-14
1.98656e-14
1.96455e-14
1.94154e-14
1.91783e-14
1.89375e-14
1.86965e-14
1.84586e-14
1.82272e-14
1.80052e-14
1.77955e-14
2.01497e-14
2.01334e-14
2.01008e-14
2.0052e-14
1.99873e-14
1.99068e-14
1.9811e-14
1.97005e-14
1.95762e-14
1.94391e-14
1.92906e-14
1.91323e-14
1.8966e-14
1.8794e-14
1.86184e-14
1.84416e-14
1.82662e-14
1.80946e-14
1.79289e-14
1.77713e-14
1.94917e-14
1.948e-14
1.94566e-14
1.94216e-14
1.93751e-14
1.93173e-14
1.92484e-14
1.91688e-14
1.90791e-14
1.89801e-14
1.88725e-14
1.87575e-14
1.86365e-14
1.85108e-14
1.8382e-14
1.82519e-14
1.81223e-14
1.79948e-14
1.78712e-14
1.7753e-14
1.90162e-14
1.90077e-14
1.89908e-14
1.89654e-14
1.89316e-14
1.88897e-14
1.88396e-14
1.87818e-14
1.87166e-14
1.86444e-14
1.85659e-14
1.84819e-14
1.83933e-14
1.83011e-14
1.82063e-14
1.81103e-14
1.80144e-14
1.79196e-14
1.78275e-14
1.77391e-14
1.86693e-14
1.86631e-14
1.86507e-14
1.86321e-14
1.86075e-14
1.85768e-14
1.85402e-14
1.84979e-14
1.84502e-14
1.83974e-14
1.83399e-14
1.82783e-14
1.82131e-14
1.81453e-14
1.80754e-14
1.80045e-14
1.79334e-14
1.78631e-14
1.77945e-14
1.77285e-14
1.84145e-14
1.84099e-14
1.84008e-14
1.83872e-14
1.83691e-14
1.83466e-14
1.83197e-14
1.82887e-14
1.82536e-14
1.82148e-14
1.81725e-14
1.81272e-14
1.80793e-14
1.80293e-14
1.79778e-14
1.79254e-14
1.78728e-14
1.78207e-14
1.77697e-14
1.77205e-14
1.82265e-14
1.82231e-14
1.82164e-14
1.82064e-14
1.81931e-14
1.81765e-14
1.81567e-14
1.81339e-14
1.81081e-14
1.80795e-14
1.80484e-14
1.80151e-14
1.79798e-14
1.79429e-14
1.79049e-14
1.78663e-14
1.78274e-14
1.77888e-14
1.7751e-14
1.77145e-14
1.80874e-14
1.8085e-14
1.808e-14
1.80726e-14
1.80628e-14
1.80506e-14
1.8036e-14
1.80192e-14
1.80002e-14
1.79792e-14
1.79563e-14
1.79318e-14
1.79058e-14
1.78786e-14
1.78506e-14
1.78221e-14
1.77935e-14
1.7765e-14
1.7737e-14
1.771e-14
1.79845e-14
1.79827e-14
1.7979e-14
1.79736e-14
1.79663e-14
1.79573e-14
1.79466e-14
1.79342e-14
1.79203e-14
1.79048e-14
1.7888e-14
1.78699e-14
1.78508e-14
1.78308e-14
1.78102e-14
1.77893e-14
1.77682e-14
1.77472e-14
1.77266e-14
1.77066e-14
1.79083e-14
1.79069e-14
1.79042e-14
1.79002e-14
1.78949e-14
1.78883e-14
1.78804e-14
1.78713e-14
1.7861e-14
1.78497e-14
1.78373e-14
1.7824e-14
1.781e-14
1.77954e-14
1.77802e-14
1.77648e-14
1.77493e-14
1.77339e-14
1.77188e-14
1.77041e-14
1.78519e-14
1.78509e-14
1.7849e-14
1.7846e-14
1.78421e-14
1.78372e-14
1.78314e-14
1.78247e-14
1.78172e-14
1.78089e-14
1.77998e-14
1.77901e-14
1.77798e-14
1.77691e-14
1.7758e-14
1.77467e-14
1.77354e-14
1.77241e-14
1.7713e-14
1.77023e-14
1.78103e-14
1.78096e-14
1.78082e-14
1.7806e-14
1.78031e-14
1.77996e-14
1.77953e-14
1.77904e-14
1.77849e-14
1.77788e-14
1.77722e-14
1.77651e-14
1.77575e-14
1.77497e-14
1.77416e-14
1.77334e-14
1.77251e-14
1.77168e-14
1.77087e-14
1.77009e-14
1.77798e-14
1.77793e-14
1.77782e-14
1.77766e-14
1.77745e-14
1.77719e-14
1.77688e-14
1.77652e-14
1.77611e-14
1.77567e-14
1.77518e-14
1.77467e-14
1.77412e-14
1.77355e-14
1.77296e-14
1.77236e-14
1.77175e-14
1.77115e-14
1.77056e-14
1.76999e-14
1.77574e-14
1.7757e-14
1.77563e-14
1.77551e-14
1.77535e-14
1.77516e-14
1.77494e-14
1.77467e-14
1.77438e-14
1.77405e-14
1.7737e-14
1.77332e-14
1.77292e-14
1.7725e-14
1.77207e-14
1.77164e-14
1.7712e-14
1.77076e-14
1.77033e-14
1.76991e-14
1.77412e-14
1.77409e-14
1.77403e-14
1.77395e-14
1.77383e-14
1.77369e-14
1.77353e-14
1.77333e-14
1.77312e-14
1.77288e-14
1.77262e-14
1.77235e-14
1.77205e-14
1.77175e-14
1.77144e-14
1.77112e-14
1.77079e-14
1.77048e-14
1.77016e-14
1.76986e-14
1.77295e-14
1.77293e-14
1.77289e-14
1.77283e-14
1.77274e-14
1.77264e-14
1.77252e-14
1.77237e-14
1.77222e-14
1.77204e-14
1.77185e-14
1.77165e-14
1.77143e-14
1.77121e-14
1.77098e-14
1.77074e-14
1.77051e-14
1.77027e-14
1.77004e-14
1.76982e-14
1.77213e-14
1.77212e-14
1.77209e-14
1.77204e-14
1.77198e-14
1.7719e-14
1.77181e-14
1.7717e-14
1.77158e-14
1.77145e-14
1.77131e-14
1.77116e-14
1.77099e-14
1.77083e-14
1.77066e-14
1.77048e-14
1.7703e-14
1.77013e-14
1.76996e-14
1.76979e-14
1.77158e-14
1.77157e-14
1.77155e-14
1.77151e-14
1.77146e-14
1.7714e-14
1.77133e-14
1.77125e-14
1.77115e-14
1.77105e-14
1.77094e-14
1.77082e-14
1.7707e-14
1.77057e-14
1.77044e-14
1.7703e-14
1.77017e-14
1.77003e-14
1.7699e-14
1.76977e-14
1.77124e-14
1.77123e-14
1.77121e-14
1.77118e-14
1.77114e-14
1.77109e-14
1.77103e-14
1.77097e-14
1.77089e-14
1.77081e-14
1.77072e-14
1.77062e-14
1.77052e-14
1.77041e-14
1.77031e-14
1.7702e-14
1.77009e-14
1.76998e-14
1.76987e-14
1.76976e-14
1.77108e-14
1.77107e-14
1.77105e-14
1.77103e-14
1.77099e-14
1.77095e-14
1.77089e-14
1.77083e-14
1.77077e-14
1.77069e-14
1.77061e-14
1.77052e-14
1.77043e-14
1.77034e-14
1.77024e-14
1.77014e-14
1.77005e-14
1.76995e-14
1.76985e-14
1.76976e-14
)
;

boundaryField
{
    topWall
    {
        type            zeroGradient;
    }
    bottomWall
    {
        type            zeroGradient;
    }
    sideWallL
    {
        type            symmetry;
    }
    sideWallR
    {
        type            calculated;
        value           uniform 0;
    }
    frontAndBack
    {
        type            empty;
    }
}


// ************************************************************************* //
