/*--------------------------------*- C++ -*----------------------------------*\
  =========                 |
  \\      /  F ield         | OpenFOAM: The Open Source CFD Toolbox
   \\    /   O peration     | Website:  https://openfoam.org
    \\  /    A nd           | Version:  7
     \\/     M anipulation  |
\*---------------------------------------------------------------------------*/
FoamFile
{
    version     2.0;
    format      ascii;
    class       volScalarField;
    location    "34";
    object      T;
}
// * * * * * * * * * * * * * * * * * * * * * * * * * * * * * * * * * * * * * //

dimensions      [0 0 0 1 0 0 0];

internalField   nonuniform List<scalar> 
900
(
585.39
585.364
585.311
585.228
585.109
584.948
584.734
584.452
584.081
583.594
582.947
582.078
580.887
579.212
576.759
572.931
566.323
553.056
520.691
425.583
541.917
541.845
541.696
541.462
541.129
540.676
540.075
539.284
538.247
536.882
535.075
532.651
529.349
524.748
518.143
508.27
492.714
466.598
420.114
336.955
506.62
506.507
506.274
505.908
505.387
504.681
503.746
502.52
500.918
498.823
496.066
492.405
487.483
480.761
471.397
458.061
438.629
409.828
367.293
307.854
475.296
475.147
474.841
474.362
473.683
472.764
471.552
469.972
467.922
465.264
461.806
457.281
451.316
443.381
432.725
418.297
398.691
372.238
337.578
295.286
447.416
447.24
446.878
446.312
445.511
444.433
443.018
441.186
438.829
435.805
431.923
426.929
420.484
412.144
401.333
387.344
369.389
346.795
319.448
288.57
422.743
422.547
422.146
421.52
420.637
419.455
417.912
415.93
413.404
410.2
406.145
401.017
394.54
386.376
376.126
363.367
347.722
329.023
307.57
284.435
401.032
400.824
400.4
399.74
398.814
397.579
395.979
393.939
391.364
388.136
384.109
379.102
372.905
365.279
355.971
344.752
331.485
316.223
299.345
281.655
382.028
381.817
381.385
380.715
379.779
378.537
376.938
374.917
372.391
369.26
365.408
360.695
354.97
348.074
339.859
330.22
319.141
306.756
293.409
279.679
365.477
365.268
364.842
364.182
363.264
362.052
360.503
358.559
356.154
353.208
349.627
345.313
340.159
334.066
326.957
318.798
309.631
299.603
288.996
278.222
351.131
350.929
350.518
349.885
349.007
347.854
346.39
344.567
342.333
339.623
336.371
332.504
327.954
322.664
316.598
309.762
302.219
294.105
285.64
277.12
338.752
338.562
338.175
337.58
336.758
335.684
334.329
332.655
330.62
328.176
325.275
321.869
317.913
313.379
308.257
302.572
296.388
289.823
283.047
276.27
328.12
327.944
327.586
327.037
326.281
325.3
324.068
322.557
320.734
318.566
316.017
313.057
309.66
305.814
301.524
296.82
291.765
286.455
281.017
275.608
319.028
318.867
318.542
318.043
317.36
316.477
315.374
314.031
312.422
310.524
308.313
305.769
302.881
299.645
296.075
292.202
288.079
283.784
279.415
275.085
311.286
311.142
310.85
310.405
309.796
309.012
308.039
306.859
305.457
303.814
301.917
299.753
297.318
294.615
291.659
288.481
285.126
281.654
278.14
274.67
304.724
304.596
304.338
303.944
303.409
302.722
301.872
300.849
299.639
298.233
296.619
294.794
292.755
290.511
288.076
285.477
282.752
279.948
277.122
274.339
299.184
299.072
298.846
298.503
298.037
297.442
296.708
295.83
294.797
293.603
292.242
290.713
289.018
287.164
285.167
283.049
280.839
278.577
276.306
274.073
294.527
294.431
294.235
293.939
293.538
293.027
292.4
291.653
290.778
289.773
288.634
287.362
285.96
284.437
282.805
281.083
279.296
277.474
275.65
273.86
290.63
290.547
290.38
290.127
289.784
289.35
288.819
288.188
287.454
286.614
285.667
284.615
283.462
282.215
280.887
279.492
278.051
276.585
275.122
273.688
287.382
287.311
287.169
286.955
286.666
286.299
285.853
285.325
284.713
284.016
283.233
282.368
281.424
280.409
279.332
278.205
277.045
275.869
274.697
273.55
284.686
284.626
284.507
284.327
284.084
283.778
283.406
282.967
282.46
281.885
281.242
280.535
279.766
278.942
278.071
277.164
276.233
275.291
274.355
273.439
282.458
282.408
282.308
282.158
281.956
281.702
281.394
281.031
280.614
280.143
279.618
279.042
278.419
277.753
277.052
276.324
275.578
274.826
274.079
273.35
280.624
280.583
280.5
280.376
280.209
279.999
279.746
279.449
279.107
278.723
278.296
277.83
277.327
276.791
276.229
275.646
275.051
274.452
273.858
273.278
279.121
279.087
279.019
278.917
278.78
278.608
278.401
278.159
277.882
277.57
277.225
276.849
276.445
276.015
275.566
275.101
274.628
274.152
273.68
273.22
277.895
277.867
277.811
277.728
277.616
277.476
277.308
277.112
276.888
276.636
276.359
276.057
275.733
275.391
275.033
274.664
274.288
273.911
273.538
273.174
276.898
276.876
276.83
276.763
276.672
276.559
276.423
276.265
276.085
275.883
275.661
275.42
275.162
274.89
274.605
274.313
274.016
273.718
273.424
273.137
276.092
276.074
276.037
275.983
275.91
275.819
275.71
275.583
275.438
275.277
275.1
274.909
274.704
274.488
274.264
274.033
273.799
273.565
273.333
273.108
275.442
275.428
275.398
275.355
275.296
275.223
275.136
275.035
274.92
274.792
274.652
274.5
274.338
274.168
273.992
273.81
273.626
273.442
273.261
273.085
274.921
274.909
274.886
274.851
274.805
274.747
274.678
274.597
274.506
274.405
274.294
274.175
274.047
273.914
273.775
273.633
273.489
273.346
273.204
273.066
274.505
274.496
274.477
274.449
274.413
274.367
274.312
274.249
274.177
274.097
274.01
273.916
273.817
273.712
273.604
273.493
273.381
273.269
273.159
273.051
274.174
274.166
274.152
274.13
274.101
274.065
274.022
273.972
273.916
273.854
273.785
273.712
273.634
273.553
273.469
273.382
273.295
273.209
273.123
273.04
273.912
273.906
273.895
273.877
273.855
273.826
273.793
273.754
273.71
273.661
273.608
273.551
273.491
273.428
273.362
273.296
273.228
273.161
273.095
273.031
273.705
273.701
273.692
273.678
273.661
273.639
273.613
273.582
273.548
273.51
273.469
273.425
273.378
273.33
273.279
273.228
273.176
273.124
273.073
273.024
273.543
273.54
273.533
273.522
273.509
273.492
273.471
273.448
273.421
273.392
273.361
273.327
273.291
273.253
273.214
273.175
273.135
273.095
273.056
273.018
273.417
273.414
273.409
273.401
273.39
273.377
273.361
273.343
273.323
273.3
273.276
273.25
273.222
273.193
273.164
273.133
273.103
273.073
273.043
273.014
273.318
273.316
273.312
273.306
273.298
273.288
273.276
273.262
273.246
273.229
273.21
273.19
273.169
273.147
273.125
273.102
273.078
273.055
273.033
273.011
273.242
273.241
273.237
273.233
273.226
273.219
273.21
273.199
273.187
273.174
273.16
273.145
273.129
273.112
273.095
273.077
273.059
273.042
273.025
273.008
273.184
273.182
273.18
273.176
273.172
273.166
273.159
273.151
273.142
273.132
273.121
273.109
273.097
273.085
273.072
273.058
273.045
273.032
273.019
273.006
273.139
273.138
273.136
273.133
273.13
273.125
273.12
273.114
273.107
273.099
273.091
273.083
273.073
273.064
273.054
273.044
273.034
273.024
273.014
273.005
273.105
273.104
273.103
273.101
273.098
273.095
273.091
273.086
273.081
273.075
273.069
273.062
273.055
273.048
273.041
273.033
273.026
273.018
273.011
273.003
273.079
273.079
273.078
273.076
273.074
273.072
273.069
273.065
273.061
273.057
273.052
273.047
273.042
273.036
273.031
273.025
273.019
273.014
273.008
273.003
273.061
273.06
273.059
273.058
273.057
273.055
273.052
273.05
273.047
273.043
273.04
273.036
273.032
273.028
273.023
273.019
273.015
273.01
273.006
273.002
273.047
273.047
273.046
273.045
273.044
273.042
273.04
273.038
273.036
273.033
273.031
273.028
273.025
273.021
273.018
273.015
273.011
273.008
273.005
273.002
273.038
273.037
273.037
273.036
273.035
273.034
273.032
273.031
273.029
273.027
273.025
273.022
273.02
273.017
273.014
273.012
273.009
273.006
273.004
273.001
273.032
273.031
273.031
273.03
273.03
273.029
273.027
273.026
273.024
273.023
273.021
273.019
273.017
273.014
273.012
273.01
273.008
273.005
273.003
273.001
273.029
273.029
273.028
273.028
273.027
273.026
273.025
273.024
273.022
273.021
273.019
273.017
273.015
273.013
273.011
273.009
273.007
273.005
273.003
273.001
)
;

boundaryField
{
    topWall
    {
        type            zeroGradient;
    }
    bottomWall
    {
        type            codedFixedValue;
        value           uniform 613;
        name            heating;
        code            #{
            const scalar t = this->db().time().value();
            const scalar Ttemp = 273 + 10*t;
            operator==(Ttemp);
        #};
    }
    sideWallL
    {
        type            symmetry;
    }
    sideWallR
    {
        type            fixedValue;
        value           uniform 273;
    }
    frontAndBack
    {
        type            empty;
    }
}


// ************************************************************************* //
