/*--------------------------------*- C++ -*----------------------------------*\
  =========                 |
  \\      /  F ield         | OpenFOAM: The Open Source CFD Toolbox
   \\    /   O peration     | Website:  https://openfoam.org
    \\  /    A nd           | Version:  7
     \\/     M anipulation  |
\*---------------------------------------------------------------------------*/
FoamFile
{
    version     2.0;
    format      ascii;
    class       volScalarField;
    location    "39";
    object      gradTx;
}
// * * * * * * * * * * * * * * * * * * * * * * * * * * * * * * * * * * * * * //

dimensions      [0 -1 0 1 0 0 0];

internalField   nonuniform List<scalar> 
900
(
-166.506
-507.703
-873.978
-1283.85
-1758.71
-2324.27
-3012.45
-3863.7
-4930.15
-6279.8
-8002.49
-10220.2
-13109.7
-16971.8
-22484.2
-31722.5
-52288.7
-114586
-345137
-1.12242e+06
-302.629
-923.039
-1589.98
-2338.22
-3208.57
-4251.33
-5530.98
-7132.92
-9173.63
-11816.7
-15299.8
-19982
-26434.8
-35633
-49391.5
-71463.1
-110516
-188322
-347981
-582616
-388.948
-1186.4
-2043.99
-3006.78
-4128.03
-5473.8
-7129.43
-9208.87
-11868.7
-15330.1
-19914.4
-26103.1
-34641
-46720.6
-64306.9
-90684
-131177
-193052
-278619
-356026
-488.454
-1489.21
-2563.19
-3764.97
-5158.42
-6821.91
-8855.21
-11389.1
-14599.2
-18726
-24105.1
-31211
-40722.1
-53607.4
-71221.8
-95325.5
-127736
-168776
-212807
-240642
-573.485
-1747.11
-3002.37
-4399.48
-6007.85
-7910.96
-10212.5
-13044.6
-16578
-21037
-26716.3
-34003.6
-43399.2
-55522.8
-71068.2
-90619.3
-114151
-139947
-162862
-173291
-635.879
-1935.4
-3319.74
-4850.64
-6597.99
-8643.82
-11087
-14049
-17680
-22166.8
-27738.2
-34668.5
-43268
-53848.5
-66633.1
-81564.4
-97955.1
-113971
-126175
-129914
-674.336
-2050.37
-3509.74
-5112.24
-6924.16
-9021.2
-11491.5
-14438.8
-17985
-22271.9
-27459
-33715.2
-41196.9
-50002.7
-60090.8
-71142.6
-82375.7
-92357.1
-98989.9
-99988.2
-690.171
-2096.27
-3580.59
-5198.38
-7009.56
-9080.48
-11485.5
-14307.9
-17640
-21580.7
-26229.2
-31672.4
-37960.7
-45069.4
-52838
-60892.1
-68560.9
-74838.8
-78480.5
-78329
-686.086
-2081.59
-3547.72
-5133.55
-6891.08
-8876.02
-11148.2
-13771
-16809.7
-20327.5
-24377.3
-28989.4
-34151.1
-39778.1
-45677.4
-51507.8
-56753.8
-60740.7
-62729.4
-62113.8
-665.524
-2017.01
-3430.15
-4947.09
-6611.38
-8468.07
-10563.3
-12943
-15650.2
-18720.6
-22175.1
-26009.1
-30177.8
-34576.8
-39022.6
-43236.2
-46841.3
-49392.7
-50447.3
-49677.2
-632.198
-1913.97
-3247.98
-4669.35
-6213.45
-7915.49
-9809.72
-11927.6
-14295.3
-16929.1
-19829.5
-22973.1
-26302.5
-29715.1
-33053.7
-36101.9
-38592.4
-40232.5
-40752.5
-39969.7
-589.735
-1783.59
-3020.52
-4329.02
-5736.99
-7271.15
-8955.89
-10811.6
-12852.1
-15081
-17487.2
-20039.2
-22678.5
-25314
-27818.3
-30028.9
-31758
-32812.7
-33026.1
-32294.3
-541.441
-1635.93
-2765.08
-3951.4
-5216.35
-6579.55
-8057.71
-9662.97
-11400.8
-13267.3
-15245.6
-17302.5
-19384.3
-21414.8
-23294
-24902.1
-26107.8
-26782.9
-26822.8
-26167.4
-490.156
-1479.62
-2496.32
-3557.61
-4679.57
-5876.18
-7158.28
-8532.24
-9998.25
-11548.2
-13163.6
-14812.8
-16449.7
-18012.5
-19424.5
-20598.1
-21441.5
-21869.1
-21814.3
-21241.9
-438.199
-1321.65
-2226
-3164.34
-4148.39
-5187.74
-6288.98
-7454.59
-8681.62
-9960.23
-11272.2
-12589.7
-13874.3
-15077
-16139.8
-16999
-17590.3
-17856
-17753.4
-17261.6
-387.362
-1167.39
-1963.11
-2784.11
-3638.7
-4533.19
-5471.16
-6452.6
-7472.94
-8522.05
-9583.33
-10633
-11639.9
-12565.9
-13367.4
-13998.3
-14413.3
-14573.3
-14450.6
-14033
-338.954
-1020.76
-1714.05
-2425.69
-3161.35
-3924.93
-4717.99
-5539.04
-6382.85
-7239.85
-8095.54
-8930.18
-9718.94
-10432.4
-11038.2
-11502.6
-11793.9
-11885.3
-11758.8
-11407.1
-293.861
-884.375
-1483.06
-2094.69
-2722.97
-3370.1
-4036.3
-4719.29
-5413.82
-6111.29
-6799.4
-7462.09
-8079.81
-8630.1
-9088.77
-9431.45
-9635.68
-9683.11
-9561.75
-9267.7
-252.614
-759.78
-1272.59
-1794.21
-2326.94
-2871.79
-3428.16
-3993.46
-4562.76
-5128.58
-5680.7
-6206.25
-6689.98
-7114.8
-7462.75
-7716.13
-7858.99
-7878.7
-7767.32
-7522.81
-215.464
-647.689
-1083.66
-1525.37
-1974.1
-2430.1
-2892.29
-3358.06
-3822.97
-4280.67
-4722.83
-5139.21
-5518
-5846.27
-6110.67
-6298.34
-6397.94
-6400.7
-6301.41
-6099.08
-182.45
-548.172
-916.243
-1287.83
-1663.51
-2043.03
-2425.12
-2807.27
-3185.64
-3554.92
-3908.38
-4237.97
-4534.58
-4788.44
-4989.66
-5128.87
-5197.98
-5190.9
-5104.19
-4937.52
-153.451
-460.837
-769.576
-1080.25
-1392.98
-1707.22
-2021.64
-2333.97
-2640.92
-2938.12
-3220.2
-3480.85
-3713.09
-3909.54
-4062.88
-4166.26
-4213.92
-4201.61
-4127.07
-3990.33
-128.244
-384.978
-642.374
-900.622
-1159.55
-1418.47
-1676.09
-1930.4
-2178.65
-2417.27
-2642.01
-2847.95
-3029.75
-3181.85
-3298.82
-3375.68
-3408.29
-3393.68
-3330.4
-3218.66
-106.536
-319.693
-533.05
-746.545
-959.831
-1172.18
-1382.38
-1588.72
-1788.89
-1980.04
-2158.78
-2321.32
-2463.59
-2581.39
-2670.7
-2727.88
-2749.97
-2734.89
-2681.72
-2590.74
-87.9987
-263.979
-439.864
-615.44
-790.276
-963.649
-1134.48
-1301.31
-1462.24
-1614.99
-1756.91
-1885.05
-1996.32
-2087.56
-2155.8
-2198.37
-2213.14
-2198.68
-2154.38
-2080.58
-72.2924
-216.798
-361.033
-504.702
-647.346
-788.287
-926.584
-1061
-1190.01
-1311.79
-1424.26
-1525.15
-1612.11
-1682.78
-1734.94
-1766.64
-1776.36
-1763.09
-1726.47
-1666.83
-59.0799
-177.127
-294.811
-411.804
-527.655
-641.75
-753.279
-861.221
-964.336
-1061.18
-1150.14
-1229.47
-1297.37
-1352.08
-1391.96
-1415.58
-1421.84
-1410.04
-1379.98
-1331.93
-48.0396
-143.992
-239.546
-334.371
-428.045
-520.027
-609.632
-696.02
-778.196
-855.02
-925.237
-987.511
-1040.48
-1082.82
-1113.3
-1130.9
-1134.81
-1124.56
-1100.03
-1061.47
-38.8726
-116.49
-193.709
-270.216
-345.632
-419.488
-491.211
-560.116
-625.409
-686.195
-741.5
-790.301
-831.566
-864.302
-887.604
-900.713
-903.059
-894.311
-874.407
-843.574
-31.3066
-93.7981
-155.914
-217.369
-277.829
-336.895
-394.092
-448.868
-500.59
-548.558
-592.019
-630.191
-662.293
-687.581
-705.385
-715.149
-716.464
-709.103
-693.042
-668.473
-25.0977
-75.182
-124.925
-174.076
-222.345
-269.397
-314.845
-358.242
-399.089
-436.839
-470.912
-500.71
-525.644
-545.156
-558.751
-566.021
-566.674
-560.554
-547.659
-528.15
-20.0306
-59.9934
-99.6558
-138.799
-177.179
-214.517
-250.497
-284.764
-316.924
-346.551
-373.197
-396.41
-415.742
-430.779
-441.151
-446.562
-446.802
-441.766
-431.463
-416.026
-15.9177
-47.668
-79.1589
-110.205
-140.6
-170.118
-198.503
-225.47
-250.712
-273.898
-294.685
-312.728
-327.69
-339.26
-347.167
-351.192
-351.186
-347.078
-338.884
-326.712
-12.5971
-37.7191
-62.6211
-87.1472
-111.128
-134.378
-156.693
-177.847
-197.6
-215.695
-231.871
-245.864
-257.421
-266.311
-272.332
-275.324
-275.182
-271.857
-265.369
-255.803
-9.93075
-29.7316
-49.3486
-68.6525
-87.5048
-105.755
-123.24
-139.783
-155.196
-169.281
-181.837
-192.666
-201.577
-208.397
-212.977
-215.2
-214.991
-212.319
-207.202
-199.709
-7.80166
-23.3548
-38.7559
-53.8991
-68.6718
-82.9534
-96.6141
-109.515
-121.51
-132.447
-142.173
-150.537
-157.396
-162.621
-166.101
-167.753
-167.521
-165.385
-161.364
-155.512
-6.11194
-18.2947
-30.3529
-42.2005
-53.7466
-64.8949
-75.5428
-85.5816
-94.898
-103.375
-110.896
-117.347
-122.62
-126.618
-129.262
-130.488
-130.259
-128.561
-125.41
-120.849
-4.78028
-14.3073
-23.7331
-32.988
-41.999
-50.6895
-58.9786
-66.7814
-74.01
-80.5749
-86.3868
-91.3592
-95.4116
-98.4719
-100.48
-101.391
-101.178
-99.8324
-97.3675
-93.8183
-3.73986
-11.1924
-18.5629
-25.7952
-32.8309
-39.6091
-46.0659
-52.1351
-57.7487
-62.8375
-67.3337
-71.1715
-74.2903
-76.6362
-78.1649
-78.8435
-78.6524
-77.5869
-75.6584
-72.8943
-2.93644
-8.78727
-14.5716
-20.2442
-25.7581
-31.0648
-36.1139
-40.8534
-45.2304
-49.1916
-52.6848
-55.6599
-58.0711
-59.878
-61.0474
-61.5553
-61.3876
-60.5419
-59.0277
-56.8666
-2.32661
-6.96185
-11.5429
-16.0329
-20.394
-24.5872
-28.5725
-32.3086
-35.754
-38.867
-41.6073
-43.9364
-45.8191
-47.2248
-48.1286
-48.5126
-48.3669
-47.6902
-46.4904
-44.785
-1.87641
-5.61433
-9.30739
-12.9252
-16.4367
-19.8101
-23.0128
-26.0116
-28.7734
-31.2651
-33.4547
-35.3121
-36.8099
-37.9243
-38.6364
-38.9325
-38.8055
-38.2547
-37.2872
-35.9169
-1.56007
-4.66753
-7.73685
-10.7423
-13.6575
-16.456
-19.1104
-21.5932
-23.877
-25.9347
-27.7402
-29.2691
-30.4993
-31.4118
-31.9915
-32.2278
-32.1152
-31.6537
-30.8493
-29.7138
-1.35909
-4.06602
-6.73916
-9.35571
-11.8926
-14.3263
-16.633
-18.7889
-20.7701
-22.5533
-24.1161
-25.4376
-26.4991
-27.2846
-27.7813
-27.9804
-27.8776
-27.4732
-26.7724
-25.7857
-1.26152
-3.77404
-6.25488
-8.68273
-11.036
-13.2928
-15.431
-17.4284
-19.263
-20.9133
-22.3587
-23.58
-24.56
-25.2841
-25.7408
-25.9222
-25.8243
-25.4477
-24.7973
-23.8827
)
;

boundaryField
{
    topWall
    {
        type            calculated;
        value           nonuniform List<scalar> 
20
(
-1.26152
-3.77404
-6.25488
-8.68273
-11.036
-13.2928
-15.431
-17.4284
-19.263
-20.9133
-22.3587
-23.58
-24.56
-25.2841
-25.7408
-25.9222
-25.8243
-25.4477
-24.7973
-23.8827
)
;
    }
    bottomWall
    {
        type            calculated;
        value           nonuniform List<scalar> 
20
(
-166.506
-507.703
-873.978
-1283.85
-1758.71
-2324.27
-3012.45
-3863.7
-4930.15
-6279.8
-8002.49
-10220.2
-13109.7
-16971.8
-22484.2
-31722.5
-52288.7
-114586
-345137
-1.12242e+06
)
;
    }
    sideWallL
    {
        type            symmetry;
    }
    sideWallR
    {
        type            calculated;
        value           nonuniform List<scalar> 
45
(
-1.71683e+06
-710100
-385148
-246994
-173904
-129043
-98806.7
-77180.4
-61095.3
-48806.2
-39237.5
-31684.2
-25661.7
-20824.2
-16917.5
-13750.1
-11175
-9077.57
-7367.41
-5972.33
-4834.36
-3906.57
-3150.81
-2535.92
-2036.41
-1631.33
-1303.49
-1038.75
-825.473
-654.099
-516.772
-407.048
-319.65
-250.266
-195.381
-152.137
-118.224
-91.7783
-71.3077
-55.6278
-43.8086
-35.1332
-29.0651
-25.2225
-23.3609
)
;
    }
    frontAndBack
    {
        type            empty;
    }
}


// ************************************************************************* //
