/*--------------------------------*- C++ -*----------------------------------*\
  =========                 |
  \\      /  F ield         | OpenFOAM: The Open Source CFD Toolbox
   \\    /   O peration     | Website:  https://openfoam.org
    \\  /    A nd           | Version:  7
     \\/     M anipulation  |
\*---------------------------------------------------------------------------*/
FoamFile
{
    version     2.0;
    format      ascii;
    class       volScalarField;
    location    "39";
    object      gradTy;
}
// * * * * * * * * * * * * * * * * * * * * * * * * * * * * * * * * * * * * * //

dimensions      [0 -1 0 1 0 0 0];

internalField   nonuniform List<scalar> 
900
(
-322073
-322542
-323504
-325006
-327126
-329974
-333702
-338517
-344698
-352621
-362795
-375923
-392997
-415468
-445602
-487343
-548788
-650149
-851696
-1.34327e+06
-230468
-230690
-231146
-231860
-232869
-234230
-236019
-238347
-241364
-245285
-250414
-257197
-266297
-278728
-296046
-320551
-355008
-399440
-433474
-332921
-176950
-177136
-177516
-178109
-178943
-180059
-181513
-183383
-185769
-188808
-192679
-197614
-203908
-211901
-221882
-233731
-245744
-250950
-226198
-115776
-152458
-152643
-153019
-153601
-154412
-155481
-156849
-158564
-160685
-163274
-166392
-170075
-174292
-178834
-183094
-185595
-183029
-168568
-129924
-52811.1
-136653
-136801
-137099
-137557
-138185
-138997
-140007
-141229
-142667
-144309
-146108
-147943
-149565
-150489
-149806
-145900
-136045
-116119
-81240.8
-29487.8
-122648
-122749
-122951
-123256
-123664
-124172
-124774
-125451
-126168
-126858
-127403
-127601
-127115
-125399
-121595
-114421
-102118
-82646
-54528.1
-18774.2
-109581
-109635
-109742
-109896
-110089
-110308
-110526
-110706
-110785
-110666
-110199
-109157
-107203
-103850
-98423.7
-90054.7
-77751.4
-60660.4
-38618.9
-12965.7
-97353.1
-97364.9
-97384.3
-97402.8
-97405.6
-97369.8
-97260.5
-97026.4
-96592.7
-95851.2
-94648.3
-92769.4
-89922.4
-85723.6
-79697.8
-71310.2
-60062.9
-45688.3
-28446.6
-9427.85
-85984.1
-85959.4
-85904.8
-85809
-85653.5
-85410.8
-85041.1
-84488.6
-83676.2
-82498.8
-80816.1
-78444.7
-75152.8
-70661.7
-64660.2
-56846.3
-47004.3
-35126.7
-21558.2
-7093.54
-75507.1
-75453.2
-75339.4
-75153.4
-74875.2
-74475.8
-73914.7
-73137.4
-72071.4
-70622.9
-68672.9
-66075.1
-62656.7
-58226.5
-52593.7
-45602.8
-37187.8
-27441.4
-16679.6
-5464.43
-65941.8
-65866
-65708.3
-65456.3
-65090.3
-64582
-63893.3
-62974.5
-61762
-60176.4
-58122.4
-55488.6
-52152.4
-47989.3
-42889.7
-36785
-29682.4
-21701.8
-13102.4
-4280.5
-57287.2
-57196.4
-57009.2
-56713.5
-56291.2
-55716.4
-54955.3
-53964.4
-52690.6
-51070
-49028.8
-46486.1
-43358.2
-39567.9
-35057.8
-29808.3
-23858.1
-17323.6
-10408.4
-3393.96
-49522.2
-49422.6
-49218.2
-48898.4
-48446.8
-47841
-47051.8
-46043.4
-44772.5
-43189.5
-41239.7
-38865.9
-36013.3
-32637.1
-28711.8
-24243.3
-19281
-13926.8
-8337.4
-2715
-42608.8
-42505.6
-42294.5
-41966.5
-41507.5
-40898.5
-40115.6
-39129.8
-37907.3
-36410.6
-34600.2
-32437.2
-29887.5
-26927.2
-23549.7
-19773
-15646.5
-11255.5
-6719.68
-2186.05
-36496.9
-36394.1
-36184.7
-35860.9
-35411.2
-34820
-34068.2
-33132.9
-31988.6
-30607.6
-28962.4
-27027.4
-24782.6
-22217.5
-19335.9
-16160.4
-12736.1
-9132.2
-5440.35
-1768.53
-31128.3
-31029.1
-30827.4
-30517.1
-30088.8
-29530.1
-28826
-27959.1
-26910.4
-25660.3
-24190
-22483.6
-20530.5
-18328.2
-15885.9
-13226.6
-10389.5
-7430.24
-4418.86
-1435.63
-26440.5
-26347
-26157.5
-25867
-25468.1
-24951.2
-24305
-23516.4
-22571.7
-21457.2
-20160.9
-18673.3
-16990
-15113.2
-13054.2
-10834.6
-8487.42
-6057
-3597.18
-1168.13
-22369.6
-22283.2
-22108.6
-21841.8
-21477.1
-21007.4
-20424
-19717.5
-18878.4
-17897.5
-16767.1
-15482.6
-14043.2
-12453.7
-10725.6
-8878.22
-6939.09
-4943.33
-2932.43
-951.891
-18852.4
-18774
-18615.7
-18374.6
-18046.4
-17625.7
-17106.4
-16481.7
-15745.2
-14890.9
-13914.6
-12814.3
-11591.7
-10252.5
-8807.83
-7274.4
-5674.72
-4036.66
-2392.31
-776.309
-15828.3
-15758.2
-15616.7
-15401.8
-15110.3
-14738.4
-14281.6
-13735.3
-13095.4
-12358.2
-11521.7
-10585.9
-9553.44
-8430.5
-7227.08
-5957.41
-4639.83
-3296.39
-1952.03
-633.261
-13240.1
-13178
-13053.2
-12864
-12608.1
-12282.8
-11885.2
-11412.2
-10861.1
-10230.1
-9518.56
-8727.49
-7860.2
-6922.58
-5923.48
-4874.79
-3791.41
-2690.78
-1592.31
-516.44
-11034.5
-10980.3
-10871.3
-10706.4
-10484.1
-10202.4
-9859.5
-9453.4
-8982.63
-8446.41
-7844.99
-7180.04
-6454.97
-5675.2
-4848.38
-3984.37
-3095.19
-2194.68
-1297.97
-420.888
-9162.93
-9116.01
-9021.78
-8879.49
-8688.08
-8446.34
-8153.04
-7807.09
-7407.79
-6955.06
-6449.71
-5893.65
-5290.18
-4644.14
-3962.03
-3251.97
-2523.65
-1788.01
-1056.93
-342.662
-7581.35
-7541.11
-7460.36
-7338.6
-7175.17
-6969.33
-6720.35
-6427.73
-6091.26
-5711.32
-5288.98
-4826.22
-4326.09
-3792.79
-3231.8
-2649.77
-2054.48
-1454.62
-859.477
-278.601
-6250.18
-6215.94
-6147.29
-6043.92
-5905.44
-5731.44
-5521.55
-5275.64
-4993.84
-4676.76
-4325.59
-3942.23
-3529.42
-3090.76
-2630.81
-2155
-1669.57
-1181.39
-697.766
-226.149
-5134.19
-5105.27
-5047.34
-4960.22
-4843.7
-4697.6
-4521.8
-4316.39
-4081.71
-3818.49
-3527.9
-3211.72
-2872.32
-2512.77
-2136.84
-1748.93
-1354.05
-957.63
-565.415
-183.229
-4202.24
-4177.98
-4129.43
-4056.5
-3959.1
-3837.2
-3690.84
-3520.24
-3325.86
-3108.43
-2869.09
-2609.41
-2331.45
-2037.78
-1731.48
-1416.14
-1095.74
-774.59
-457.206
-148.145
-3426.98
-3406.77
-3366.34
-3305.67
-3224.75
-3123.65
-3002.49
-2861.58
-2701.39
-2522.65
-2326.4
-2114.01
-1887.23
-1648.21
-1399.45
-1143.85
-884.587
-625.073
-368.856
-119.504
-2784.54
-2767.81
-2734.35
-2684.18
-2617.35
-2533.96
-2434.21
-2318.42
-2187.06
-2040.82
-1880.6
-1707.6
-1523.28
-1329.41
-1128.05
-921.497
-712.299
-503.15
-296.839
-96.1626
-2254.2
-2240.43
-2212.89
-2171.64
-2116.75
-2048.36
-1966.66
-1871.99
-1764.79
-1645.67
-1515.43
-1375.08
-1225.84
-1069.16
-906.697
-740.307
-572.006
-403.923
-238.249
-77.1753
-1818.06
-1806.78
-1784.25
-1750.52
-1705.68
-1649.87
-1583.3
-1506.28
-1419.2
-1322.61
-1217.19
-1103.79
-983.411
-857.238
-726.608
-593.004
-458.022
-323.342
-190.684
-61.7627
-1460.72
-1451.54
-1433.2
-1405.77
-1369.33
-1324.03
-1270.05
-1207.68
-1137.28
-1059.31
-974.34
-883.081
-786.358
-685.127
-580.462
-473.543
-365.633
-258.055
-152.158
-49.2803
-1169.02
-1161.59
-1146.75
-1124.56
-1095.1
-1058.51
-1014.96
-964.701
-908.043
-845.377
-777.188
-704.051
-626.642
-545.73
-462.174
-376.91
-290.936
-205.29
-121.027
-39.1954
-931.768
-925.781
-913.831
-895.97
-872.279
-842.875
-807.916
-767.612
-722.229
-672.096
-617.612
-559.248
-497.55
-433.135
-366.687
-298.945
-230.695
-162.75
-95.9355
-31.0674
-739.437
-734.641
-725.073
-710.776
-691.824
-668.32
-640.399
-608.241
-572.067
-532.151
-488.819
-442.454
-393.493
-342.429
-289.803
-236.198
-182.231
-128.537
-75.7591
-24.5322
-583.996
-580.177
-572.559
-561.181
-546.107
-527.423
-505.247
-479.726
-451.045
-419.428
-385.139
-348.487
-309.82
-269.529
-228.041
-185.814
-143.329
-101.081
-59.5706
-19.2891
-458.674
-455.652
-449.626
-440.63
-428.715
-413.957
-396.451
-376.321
-353.718
-328.821
-301.845
-273.034
-242.667
-211.05
-178.518
-145.429
-112.157
-79.0863
-46.6038
-15.0898
-357.779
-355.407
-350.677
-343.617
-334.272
-322.702
-308.986
-293.225
-275.54
-256.075
-235.002
-212.513
-188.827
-164.184
-138.844
-113.087
-87.1998
-61.4804
-36.226
-11.7291
-276.534
-274.69
-271.014
-265.528
-258.27
-249.287
-238.645
-226.423
-212.717
-197.643
-181.334
-163.941
-145.635
-126.601
-107.041
-87.1679
-67.2045
-47.3774
-27.9141
-9.0376
-210.92
-209.507
-206.69
-202.487
-196.928
-190.05
-181.906
-172.557
-162.079
-150.562
-138.109
-124.836
-110.874
-96.3645
-81.4621
-66.3282
-51.1312
-36.0428
-21.2345
-6.87478
-157.552
-156.492
-154.379
-151.228
-147.06
-141.907
-135.806
-128.806
-120.964
-112.349
-103.037
-93.1185
-82.6896
-71.8573
-60.736
-49.4463
-38.1133
-26.8641
-15.8261
-5.12365
-113.551
-112.784
-111.257
-108.978
-105.966
-102.242
-97.8346
-92.7797
-87.1192
-80.9027
-74.1869
-67.0356
-59.5196
-51.7158
-43.7067
-35.5787
-27.4218
-19.327
-11.3853
-3.68589
-76.4376
-75.9203
-74.8893
-73.3521
-71.3198
-68.8079
-65.836
-62.4282
-58.6133
-54.4249
-49.9014
-45.0862
-40.0269
-34.7754
-29.3872
-23.9203
-18.435
-12.9924
-7.65344
-2.47769
-44.0358
-43.7372
-43.1423
-42.2552
-41.0827
-39.6337
-37.9195
-35.9543
-33.7548
-31.3404
-28.7334
-25.9589
-23.0443
-20.0196
-16.9166
-13.7689
-10.611
-7.47805
-4.40499
-1.42604
-14.3782
-14.2806
-14.0862
-13.7964
-13.4132
-12.9398
-12.3798
-11.7378
-11.0193
-10.2307
-9.37937
-8.47336
-7.52172
-6.53422
-5.52127
-4.49379
-3.46307
-2.44054
-1.4376
-0.465394
)
;

boundaryField
{
    topWall
    {
        type            calculated;
        value           uniform 0;
    }
    bottomWall
    {
        type            calculated;
        value           nonuniform List<scalar> 
20
(
-376109
-376775
-378140
-380271
-383275
-387306
-392572
-399356
-408027
-419076
-433146
-451086
-474027
-503525
-541914
-593462
-668804
-802617
-1.12715e+06
-2.18317e+06
)
;
    }
    sideWallL
    {
        type            symmetry;
    }
    sideWallR
    {
        type            calculated;
        value           nonuniform List<scalar> 
45
(
-1.34327e+06
-332921
-115776
-52811.1
-29487.8
-18774.2
-12965.7
-9427.85
-7093.54
-5464.43
-4280.5
-3393.96
-2715
-2186.05
-1768.53
-1435.63
-1168.13
-951.891
-776.309
-633.261
-516.44
-420.888
-342.662
-278.601
-226.149
-183.229
-148.145
-119.504
-96.1626
-77.1753
-61.7627
-49.2803
-39.1954
-31.0674
-24.5322
-19.2891
-15.0898
-11.7291
-9.0376
-6.87478
-5.12365
-3.68589
-2.47769
-1.42604
-0.465394
)
;
    }
    frontAndBack
    {
        type            empty;
    }
}


// ************************************************************************* //
