/*--------------------------------*- C++ -*----------------------------------*\
  =========                 |
  \\      /  F ield         | OpenFOAM: The Open Source CFD Toolbox
   \\    /   O peration     | Website:  https://openfoam.org
    \\  /    A nd           | Version:  7
     \\/     M anipulation  |
\*---------------------------------------------------------------------------*/
FoamFile
{
    version     2.0;
    format      ascii;
    class       volScalarField;
    location    "39";
    object      rhoc;
}
// * * * * * * * * * * * * * * * * * * * * * * * * * * * * * * * * * * * * * //

dimensions      [1 -3 0 0 0 0 0];

internalField   nonuniform List<scalar> 
900
(
0.00180149
0.0017954
0.00178298
0.00176369
0.00173673
0.00170099
0.00165505
0.00159714
0.00152516
0.00143676
0.00132943
0.00120082
0.00104922
0.000874207
0.000677582
0.000464598
0.000248533
7.02659e-05
2.31518e-06
2.65332e-12
1.98153e-05
1.96328e-05
1.92632e-05
1.86973e-05
1.79225e-05
1.69241e-05
1.56884e-05
1.42066e-05
1.24813e-05
1.05363e-05
8.42785e-06
6.25725e-06
4.17755e-06
2.38302e-06
1.06363e-06
3.15019e-07
4.39161e-08
1.27415e-09
7.91567e-13
7.2411e-21
3.6229e-07
3.56725e-07
3.45558e-07
3.28738e-07
3.06262e-07
2.78254e-07
2.45099e-07
2.07596e-07
1.6714e-07
1.2585e-07
8.65695e-08
5.25519e-08
2.6708e-08
1.0454e-08
2.74393e-09
3.78925e-10
1.75313e-11
1.11218e-13
1.51385e-17
1.26751e-24
6.90887e-09
6.75353e-09
6.44542e-09
5.99062e-09
5.40054e-09
4.69439e-09
3.90198e-09
3.06577e-09
2.24072e-09
1.48973e-09
8.72813e-10
4.30453e-10
1.66991e-10
4.59759e-11
7.64733e-12
5.92863e-13
1.39542e-14
4.88538e-17
8.24788e-21
2.1908e-26
1.27844e-10
1.24026e-10
1.16547e-10
1.05742e-10
9.21542e-11
7.65696e-11
6.0026e-11
4.37667e-11
2.91045e-11
1.71833e-11
8.67751e-12
3.55732e-12
1.09893e-12
2.29744e-13
2.77702e-14
1.5389e-15
2.78575e-17
1.02838e-19
4.50419e-23
2.47318e-27
2.36576e-12
2.2783e-12
2.10908e-12
1.86969e-12
1.57769e-12
1.25627e-12
9.32695e-13
6.35248e-13
3.88338e-13
2.06919e-13
9.23694e-14
3.27415e-14
8.56541e-15
1.49638e-15
1.52327e-16
7.52681e-18
1.42918e-19
8.01924e-22
1.12015e-24
6.6999e-28
4.5798e-14
4.38122e-14
4.0014e-14
3.47439e-14
2.84923e-14
2.18609e-14
1.54922e-14
9.96824e-15
5.69333e-15
2.80209e-15
1.1432e-15
3.67522e-16
8.71668e-17
1.40106e-17
1.3712e-18
7.18132e-20
1.74856e-21
1.76715e-23
7.69849e-26
2.89292e-28
9.72541e-16
9.25219e-16
8.35592e-16
7.1328e-16
5.71576e-16
4.25832e-16
2.91141e-16
1.79582e-16
9.77609e-17
4.56674e-17
1.7666e-17
5.41243e-18
1.24286e-18
2.00142e-19
2.093e-20
1.31029e-21
4.58047e-23
8.7914e-25
1.07409e-26
1.64177e-28
2.37227e-17
2.2475e-17
2.01303e-17
1.69719e-17
1.33786e-17
9.76794e-18
6.52337e-18
3.92132e-18
2.07911e-18
9.48148e-19
3.60642e-19
1.10271e-19
2.59615e-20
4.48493e-21
5.40864e-22
4.35961e-23
2.30267e-24
8.30874e-26
2.49821e-27
1.10569e-28
6.93302e-19
6.55168e-19
5.83892e-19
4.88733e-19
3.81776e-19
2.75887e-19
1.82329e-19
1.08617e-19
5.72977e-20
2.61986e-20
1.01253e-20
3.21415e-21
8.1218e-22
1.58249e-22
2.31214e-23
2.49423e-24
2.01275e-25
1.30976e-26
8.4748e-28
8.33211e-29
2.51726e-20
2.37671e-20
2.11477e-20
1.76668e-20
1.37773e-20
9.9513e-21
6.59066e-21
3.95287e-21
2.11531e-21
9.92672e-22
4.00663e-22
1.36217e-22
3.8202e-23
8.67733e-24
1.57868e-24
2.30982e-25
2.81145e-26
3.11731e-27
3.80722e-28
6.77735e-29
1.16885e-21
1.10439e-21
9.84322e-22
8.24846e-22
6.46644e-22
4.71086e-22
3.16228e-22
1.93613e-22
1.06846e-22
5.24487e-23
2.25818e-23
8.40956e-24
2.676e-24
7.21995e-25
1.6535e-25
3.2702e-26
5.84459e-27
1.03452e-27
2.10659e-28
5.81523e-29
7.08799e-23
6.71169e-23
6.00964e-23
5.07423e-23
4.02342e-23
2.97943e-23
2.04659e-23
1.29366e-23
7.45814e-24
3.88464e-24
1.81106e-24
7.49632e-25
2.74049e-25
8.85068e-26
2.54976e-26
6.71904e-27
1.70058e-27
4.47709e-28
1.35903e-28
5.184e-29
5.68675e-24
5.40326e-24
4.87249e-24
4.16085e-24
3.35363e-24
2.54028e-24
1.79899e-24
1.18413e-24
7.19916e-25
4.01789e-25
2.04756e-25
9.49567e-26
4.00789e-26
1.54878e-26
5.56226e-27
1.90931e-27
6.55047e-28
2.38521e-28
9.81186e-29
4.75167e-29
6.07192e-25
5.79464e-25
5.27294e-25
4.56734e-25
3.75646e-25
2.9243e-25
2.14678e-25
1.48028e-25
9.54959e-26
5.74451e-26
3.21553e-26
1.67531e-26
8.15619e-27
3.74561e-27
1.65029e-27
7.16124e-28
3.17036e-28
1.4899e-28
7.69224e-29
4.44593e-29
8.62882e-26
8.27715e-26
7.61146e-26
6.7017e-26
5.63997e-26
4.52701e-26
3.45746e-26
2.50666e-26
1.72174e-26
1.11917e-26
6.88741e-27
4.02395e-27
2.24567e-27
1.20983e-27
6.39242e-28
3.38291e-28
1.83736e-28
1.0488e-28
6.40644e-29
4.2244e-29
1.62529e-26
1.56784e-26
1.45838e-26
1.30704e-26
1.12745e-26
9.34839e-27
7.44161e-27
5.68122e-27
4.15778e-27
2.91845e-27
1.96871e-27
1.28147e-27
8.10265e-28
5.02503e-28
3.09557e-28
1.92261e-28
1.22255e-28
8.06806e-29
5.57905e-29
4.06093e-29
4.02538e-27
3.90593e-27
3.67672e-27
3.35606e-27
2.96889e-27
2.54395e-27
2.11054e-27
1.69519e-27
1.31892e-27
9.95443e-28
7.30749e-28
5.23953e-28
3.69109e-28
2.57438e-28
1.79376e-28
1.2608e-28
9.02325e-29
6.62705e-29
5.0223e-29
3.9386e-29
1.29366e-27
1.26256e-27
1.20245e-27
1.11737e-27
1.01291e-27
8.95673e-28
7.72652e-28
6.50551e-28
5.35151e-28
4.30836e-28
3.40339e-28
2.64745e-28
2.03726e-28
1.55934e-28
1.19432e-28
9.21006e-29
7.19184e-29
5.71378e-29
4.63468e-29
3.84609e-29
5.28041e-28
5.18102e-28
4.98775e-28
4.71121e-28
4.36636e-28
3.97134e-28
3.54603e-28
3.11046e-28
2.68315e-28
2.27969e-28
1.9118e-28
1.5868e-28
1.30777e-28
1.0742e-28
8.82861e-29
7.28886e-29
6.06688e-29
5.10686e-29
4.35773e-29
3.77556e-29
2.65445e-28
2.61646e-28
2.54217e-28
2.43485e-28
2.29919e-28
2.14102e-28
1.96691e-28
1.78376e-28
1.59836e-28
1.41687e-28
1.24448e-28
1.08516e-28
9.41494e-29
8.14782e-29
7.05173e-29
6.11931e-29
5.3372e-29
4.68867e-29
4.15589e-29
3.72148e-29
1.5835e-28
1.5666e-28
1.53341e-28
1.48506e-28
1.42326e-28
1.35013e-28
1.26815e-28
1.18001e-28
1.0885e-28
9.96283e-29
9.05816e-29
8.19184e-29
7.38028e-29
6.63501e-29
5.96278e-29
5.36607e-29
4.84385e-29
4.39246e-29
4.00656e-29
3.67983e-29
1.07959e-28
1.07109e-28
1.05431e-28
1.02973e-28
9.98017e-29
9.60046e-29
9.1686e-29
8.69628e-29
8.19596e-29
7.68032e-29
7.16161e-29
6.65113e-29
6.15869e-29
5.6923e-29
5.25796e-29
4.85968e-29
4.49958e-29
4.1782e-29
3.8948e-29
3.64766e-29
8.13772e-29
8.0905e-29
7.99709e-29
7.8595e-29
7.68074e-29
7.46475e-29
7.21634e-29
6.94102e-29
6.64489e-29
6.33437e-29
6.01597e-29
5.69603e-29
5.38044e-29
5.07444e-29
4.78245e-29
4.50795e-29
4.2535e-29
4.02073e-29
3.81044e-29
3.62277e-29
6.60458e-29
6.57629e-29
6.52018e-29
6.43722e-29
6.32886e-29
6.19702e-29
6.04409e-29
5.87289e-29
5.6866e-29
5.48869e-29
5.2828e-29
5.07262e-29
4.86177e-29
4.65365e-29
4.45135e-29
4.25753e-29
4.07437e-29
3.90359e-29
3.74638e-29
3.60348e-29
5.65757e-29
5.63959e-29
5.60387e-29
5.55091e-29
5.48146e-29
5.39652e-29
5.29737e-29
5.18553e-29
5.06277e-29
4.93107e-29
4.79255e-29
4.64947e-29
4.50409e-29
4.35864e-29
4.21524e-29
4.07585e-29
3.94218e-29
3.81567e-29
3.6975e-29
3.58853e-29
5.04122e-29
5.02928e-29
5.00552e-29
4.97021e-29
4.92378e-29
4.86677e-29
4.7999e-29
4.72406e-29
4.64027e-29
4.54971e-29
4.4537e-29
4.35362e-29
4.25096e-29
4.1472e-29
4.04381e-29
3.94218e-29
3.84361e-29
3.74925e-29
3.6601e-29
3.57696e-29
4.6239e-29
4.61569e-29
4.59935e-29
4.57503e-29
4.54297e-29
4.5035e-29
4.45705e-29
4.40415e-29
4.34542e-29
4.28161e-29
4.21354e-29
4.14212e-29
4.06832e-29
3.99316e-29
3.91765e-29
3.8428e-29
3.76957e-29
3.69885e-29
3.63142e-29
3.56799e-29
4.33277e-29
4.32698e-29
4.31546e-29
4.29829e-29
4.27562e-29
4.24766e-29
4.21466e-29
4.17697e-29
4.13499e-29
4.08919e-29
4.04011e-29
3.98836e-29
3.93461e-29
3.87954e-29
3.82388e-29
3.76835e-29
3.71366e-29
3.66047e-29
3.60942e-29
3.56106e-29
4.12507e-29
4.12091e-29
4.11263e-29
4.10029e-29
4.08397e-29
4.06381e-29
4.03999e-29
4.01271e-29
3.98225e-29
3.94893e-29
3.9131e-29
3.8752e-29
3.83566e-29
3.79498e-29
3.75368e-29
3.71227e-29
3.67128e-29
3.63121e-29
3.59254e-29
3.55571e-29
3.9744e-29
3.97137e-29
3.96534e-29
3.95634e-29
3.94444e-29
3.92973e-29
3.91231e-29
3.89235e-29
3.87001e-29
3.84553e-29
3.81914e-29
3.79115e-29
3.76187e-29
3.73165e-29
3.70086e-29
3.66987e-29
3.63909e-29
3.60887e-29
3.57959e-29
3.55159e-29
3.86375e-29
3.86153e-29
3.85709e-29
3.85047e-29
3.84171e-29
3.83087e-29
3.81803e-29
3.80329e-29
3.78679e-29
3.76867e-29
3.74912e-29
3.72833e-29
3.70654e-29
3.68401e-29
3.66098e-29
3.63776e-29
3.61461e-29
3.59182e-29
3.56967e-29
3.54842e-29
3.78178e-29
3.78013e-29
3.77685e-29
3.77194e-29
3.76545e-29
3.75741e-29
3.74789e-29
3.73695e-29
3.72469e-29
3.71122e-29
3.69667e-29
3.68118e-29
3.66492e-29
3.64807e-29
3.63083e-29
3.6134e-29
3.59599e-29
3.57882e-29
3.56208e-29
3.54598e-29
3.72069e-29
3.71946e-29
3.71701e-29
3.71336e-29
3.70853e-29
3.70255e-29
3.69545e-29
3.68731e-29
3.67817e-29
3.66812e-29
3.65726e-29
3.64569e-29
3.63354e-29
3.62093e-29
3.60801e-29
3.59493e-29
3.58184e-29
3.56891e-29
3.55629e-29
3.54412e-29
3.67497e-29
3.67406e-29
3.67223e-29
3.66951e-29
3.6659e-29
3.66143e-29
3.65614e-29
3.65005e-29
3.64323e-29
3.63573e-29
3.62761e-29
3.61896e-29
3.60986e-29
3.60042e-29
3.59074e-29
3.58093e-29
3.5711e-29
3.56138e-29
3.55188e-29
3.5427e-29
3.6407e-29
3.64002e-29
3.63865e-29
3.63662e-29
3.63392e-29
3.63058e-29
3.62662e-29
3.62207e-29
3.61697e-29
3.61136e-29
3.60529e-29
3.59882e-29
3.59201e-29
3.58494e-29
3.57769e-29
3.57034e-29
3.56297e-29
3.55567e-29
3.54852e-29
3.54162e-29
3.615e-29
3.61449e-29
3.61347e-29
3.61194e-29
3.60992e-29
3.60742e-29
3.60446e-29
3.60106e-29
3.59724e-29
3.59304e-29
3.5885e-29
3.58366e-29
3.57857e-29
3.57328e-29
3.56785e-29
3.56234e-29
3.55682e-29
3.55134e-29
3.54598e-29
3.5408e-29
3.59576e-29
3.59538e-29
3.59461e-29
3.59347e-29
3.59195e-29
3.59008e-29
3.58786e-29
3.58531e-29
3.58245e-29
3.57931e-29
3.57591e-29
3.57229e-29
3.56848e-29
3.56452e-29
3.56045e-29
3.55633e-29
3.55219e-29
3.54809e-29
3.54407e-29
3.54018e-29
3.5814e-29
3.58112e-29
3.58054e-29
3.57968e-29
3.57854e-29
3.57714e-29
3.57547e-29
3.57356e-29
3.57141e-29
3.56906e-29
3.56651e-29
3.56379e-29
3.56093e-29
3.55797e-29
3.55492e-29
3.55183e-29
3.54873e-29
3.54565e-29
3.54264e-29
3.53972e-29
3.57077e-29
3.57055e-29
3.57012e-29
3.56947e-29
3.56861e-29
3.56755e-29
3.56629e-29
3.56485e-29
3.56323e-29
3.56146e-29
3.55954e-29
3.55749e-29
3.55534e-29
3.55311e-29
3.55081e-29
3.54849e-29
3.54616e-29
3.54384e-29
3.54157e-29
3.53938e-29
3.56298e-29
3.56282e-29
3.56249e-29
3.56199e-29
3.56134e-29
3.56053e-29
3.55957e-29
3.55848e-29
3.55725e-29
3.55589e-29
3.55443e-29
3.55288e-29
3.55125e-29
3.54955e-29
3.54781e-29
3.54604e-29
3.54427e-29
3.54251e-29
3.54079e-29
3.53912e-29
3.55741e-29
3.55728e-29
3.55703e-29
3.55664e-29
3.55614e-29
3.55551e-29
3.55477e-29
3.55391e-29
3.55296e-29
3.55191e-29
3.55078e-29
3.54958e-29
3.54832e-29
3.547e-29
3.54566e-29
3.54429e-29
3.54292e-29
3.54156e-29
3.54023e-29
3.53894e-29
3.5536e-29
3.55349e-29
3.55329e-29
3.55298e-29
3.55257e-29
3.55207e-29
3.55147e-29
3.55079e-29
3.55003e-29
3.54919e-29
3.54828e-29
3.54732e-29
3.54631e-29
3.54526e-29
3.54418e-29
3.54309e-29
3.542e-29
3.54091e-29
3.53985e-29
3.53882e-29
3.55122e-29
3.55113e-29
3.55095e-29
3.55069e-29
3.55035e-29
3.54992e-29
3.54942e-29
3.54884e-29
3.5482e-29
3.54749e-29
3.54672e-29
3.54591e-29
3.54506e-29
3.54417e-29
3.54326e-29
3.54234e-29
3.54142e-29
3.54051e-29
3.53961e-29
3.53874e-29
3.55008e-29
3.55e-29
3.54984e-29
3.5496e-29
3.54928e-29
3.54889e-29
3.54844e-29
3.54791e-29
3.54732e-29
3.54667e-29
3.54598e-29
3.54524e-29
3.54446e-29
3.54365e-29
3.54282e-29
3.54199e-29
3.54114e-29
3.54031e-29
3.53949e-29
3.5387e-29
)
;

boundaryField
{
    topWall
    {
        type            zeroGradient;
    }
    bottomWall
    {
        type            zeroGradient;
    }
    sideWallL
    {
        type            symmetry;
    }
    sideWallR
    {
        type            zeroGradient;
    }
    frontAndBack
    {
        type            empty;
    }
}


// ************************************************************************* //
