/*--------------------------------*- C++ -*----------------------------------*\
  =========                 |
  \\      /  F ield         | OpenFOAM: The Open Source CFD Toolbox
   \\    /   O peration     | Website:  https://openfoam.org
    \\  /    A nd           | Version:  7
     \\/     M anipulation  |
\*---------------------------------------------------------------------------*/
FoamFile
{
    version     2.0;
    format      ascii;
    class       volScalarField;
    location    "39";
    object      rhog;
}
// * * * * * * * * * * * * * * * * * * * * * * * * * * * * * * * * * * * * * //

dimensions      [1 -3 0 0 0 0 0];

internalField   nonuniform List<scalar> 
900
(
5.02661
5.01297
4.98507
4.94169
4.88088
4.79995
4.69535
4.56258
4.39609
4.18925
3.93445
3.62344
3.24803
2.80125
2.27885
1.68128
1.02347
0.393247
0.0408519
1.3711e-05
0.161163
0.160149
0.158087
0.15491
0.15052
0.144789
0.13757
0.128708
0.118062
0.105546
0.0911905
0.0752195
0.0581617
0.0409556
0.0250061
0.0120781
0.00380315
0.000487999
6.69471e-06
1.20967e-10
0.0133689
0.0132459
0.0129969
0.0126158
0.0120945
0.0114237
0.0105944
0.00960102
0.00844574
0.00714415
0.00573312
0.00427874
0.00288114
0.00166822
0.000766636
0.000242801
4.06701e-05
2.12272e-06
1.13184e-08
6.757e-13
0.00133806
0.00132041
0.00128488
0.00123115
0.00115884
0.00106786
0.000958712
0.00083297
0.000693908
0.00054709
0.000400766
0.000265591
0.000153061
7.22263e-05
2.53885e-05
5.70359e-06
6.34522e-07
2.27528e-08
1.31694e-10
5.76983e-14
0.000133742
0.000131393
0.000126705
0.000119704
0.000110463
9.9135e-05
8.59989e-05
7.15128e-05
5.63546e-05
4.14282e-05
2.77974e-05
1.65092e-05
8.30703e-06
3.32339e-06
9.6286e-07
1.75873e-07
1.65098e-08
5.9696e-10
5.89325e-12
1.5143e-14
1.32737e-05
1.29837e-05
1.24092e-05
1.15628e-05
1.04671e-05
9.15835e-06
7.69106e-06
6.14034e-06
4.60112e-06
3.18053e-06
1.98139e-06
1.07771e-06
4.9006e-07
1.75526e-07
4.56361e-08
7.71298e-09
7.34566e-10
3.34298e-11
6.43142e-13
6.73587e-15
1.33867e-06
1.30418e-06
1.23637e-06
1.13772e-06
1.01231e-06
8.66101e-07
7.07147e-07
5.45435e-07
3.92162e-07
2.58259e-07
1.52236e-07
7.79384e-08
3.33165e-08
1.13003e-08
2.85045e-09
4.94104e-10
5.39056e-11
3.43108e-12
1.27782e-13
3.97913e-15
1.41049e-07
1.3695e-07
1.28944e-07
1.17426e-07
1.03014e-07
8.65593e-08
6.91302e-08
5.19477e-08
3.6252e-08
2.31047e-08
1.31657e-08
6.53063e-09
2.72783e-09
9.21545e-10
2.40225e-10
4.59273e-11
6.1528e-12
5.67196e-13
3.85495e-14
2.78131e-15
1.5966e-08
1.54621e-08
1.44832e-08
1.30878e-08
1.13641e-08
9.42832e-09
7.41879e-09
5.48359e-09
3.76156e-09
2.35883e-09
1.32748e-09
6.55682e-10
2.76906e-10
9.70764e-11
2.73858e-11
6.0436e-12
1.02683e-12
1.36584e-13
1.5728e-14
2.16264e-15
1.99266e-09
1.9266e-09
1.7988e-09
1.61786e-09
1.39642e-09
1.15061e-09
8.98879e-10
6.60034e-10
4.50695e-10
2.82522e-10
1.60129e-10
8.06396e-11
3.53937e-11
1.32728e-11
4.17635e-12
1.08985e-12
2.36719e-13
4.43929e-14
8.02777e-15
1.80462e-15
2.80502e-10
2.71024e-10
2.52737e-10
2.26956e-10
1.95581e-10
1.60984e-10
1.25799e-10
9.26315e-11
6.36971e-11
4.04767e-11
2.3489e-11
1.22888e-11
5.72064e-12
2.34155e-12
8.35857e-13
2.60196e-13
7.17614e-14
1.83724e-14
4.84857e-15
1.58054e-15
4.53606e-11
4.3841e-11
4.09125e-11
3.67912e-11
3.17863e-11
2.62774e-11
2.06798e-11
1.53972e-11
1.07679e-11
7.01615e-12
4.22238e-12
2.32643e-12
1.16421e-12
5.26172e-13
2.14565e-13
7.95532e-14
2.74392e-14
9.24681e-15
3.32404e-15
1.43222e-15
8.54123e-12
8.26473e-12
7.7318e-12
6.98149e-12
6.06927e-12
5.06281e-12
4.03562e-12
3.05892e-12
2.19266e-12
1.47761e-12
9.3058e-13
5.44783e-13
2.95313e-13
1.48083e-13
6.89705e-14
3.02114e-14
1.27706e-14
5.4492e-15
2.50599e-15
1.32993e-15
1.88868e-12
1.83103e-12
1.71976e-12
1.56273e-12
1.37109e-12
1.15842e-12
9.39482e-13
7.2869e-13
5.38411e-13
3.77467e-13
2.50195e-13
1.56381e-13
9.21018e-14
5.1235e-14
2.71179e-14
1.38585e-14
7.01045e-15
3.64074e-15
2.02796e-15
1.2572e-15
4.92385e-13
4.78543e-13
4.51772e-13
4.13849e-13
3.67295e-13
3.15194e-13
2.60923e-13
2.07831e-13
1.58871e-13
1.1628e-13
8.13502e-14
5.43758e-14
3.47782e-14
2.13817e-14
1.27485e-14
7.47971e-15
4.41026e-15
2.68312e-15
1.72981e-15
1.20427e-15
1.51358e-13
1.47533e-13
1.40115e-13
1.29555e-13
1.16498e-13
1.01736e-13
8.6146e-14
7.0617e-14
5.59587e-14
4.28225e-14
3.16394e-14
2.25944e-14
1.56414e-14
1.05552e-14
7.00522e-15
4.63015e-15
3.09655e-15
2.13195e-15
1.53429e-15
1.16508e-15
5.4707e-14
5.34958e-14
5.11393e-14
4.77663e-14
4.35616e-14
3.87545e-14
3.36032e-14
2.83741e-14
2.33192e-14
1.86527e-14
1.45331e-14
1.10515e-14
8.2314e-15
6.03822e-15
4.39593e-15
3.20695e-15
2.37002e-15
1.79326e-15
1.40102e-15
1.13566e-15
2.31319e-14
2.26956e-14
2.1844e-14
2.06181e-14
1.9077e-14
1.72951e-14
1.53572e-14
1.33529e-14
1.137e-14
9.4871e-15
7.76737e-15
6.25433e-15
4.96992e-15
3.91586e-15
3.07738e-15
2.4286e-15
1.93818e-15
1.57417e-15
1.30741e-15
1.11335e-15
1.13559e-14
1.1179e-14
1.08325e-14
1.03309e-14
9.69506e-15
8.95175e-15
8.13187e-15
7.26883e-15
6.39636e-15
5.54612e-15
4.74539e-15
4.01529e-15
3.36963e-15
2.81477e-15
2.35034e-15
1.97062e-15
1.66639e-15
1.42665e-15
1.24011e-15
1.0963e-15
6.40213e-15
6.32229e-15
6.16542e-15
5.9371e-15
5.64549e-15
5.30107e-15
4.91618e-15
4.50447e-15
4.0801e-15
3.6569e-15
3.24749e-15
2.8625e-15
2.50995e-15
2.19504e-15
1.92008e-15
1.68492e-15
1.48743e-15
1.32412e-15
1.19084e-15
1.08319e-15
4.08306e-15
4.04346e-15
3.96545e-15
3.85135e-15
3.70461e-15
3.5297e-15
3.33196e-15
3.11741e-15
2.89249e-15
2.66367e-15
2.43717e-15
2.21856e-15
2.01246e-15
1.82238e-15
1.6506e-15
1.49822e-15
1.36531e-15
1.2511e-15
1.15425e-15
1.07307e-15
2.89185e-15
2.87055e-15
2.82847e-15
2.76668e-15
2.68672e-15
2.59065e-15
2.48094e-15
2.36046e-15
2.23231e-15
2.09974e-15
1.96597e-15
1.83403e-15
1.70664e-15
1.58605e-15
1.474e-15
1.37165e-15
1.27962e-15
1.19809e-15
1.12679e-15
1.06523e-15
2.22979e-15
2.21751e-15
2.19321e-15
2.15738e-15
2.11079e-15
2.05443e-15
1.98953e-15
1.91752e-15
1.84001e-15
1.7587e-15
1.67535e-15
1.59168e-15
1.50932e-15
1.42971e-15
1.35406e-15
1.28332e-15
1.21817e-15
1.15901e-15
1.10602e-15
1.05914e-15
1.83683e-15
1.82933e-15
1.81447e-15
1.7925e-15
1.7638e-15
1.72888e-15
1.6884e-15
1.64311e-15
1.59387e-15
1.54164e-15
1.48741e-15
1.4322e-15
1.377e-15
1.32274e-15
1.27026e-15
1.22027e-15
1.17334e-15
1.12989e-15
1.0902e-15
1.05442e-15
1.59068e-15
1.58588e-15
1.57636e-15
1.56224e-15
1.54374e-15
1.52113e-15
1.49477e-15
1.46507e-15
1.43254e-15
1.39772e-15
1.36119e-15
1.32359e-15
1.28552e-15
1.24761e-15
1.21042e-15
1.17447e-15
1.14021e-15
1.10799e-15
1.0781e-15
1.05074e-15
1.42962e-15
1.42643e-15
1.42009e-15
1.41068e-15
1.39831e-15
1.38313e-15
1.36536e-15
1.34524e-15
1.32306e-15
1.29914e-15
1.27386e-15
1.2476e-15
1.22075e-15
1.19374e-15
1.16695e-15
1.14074e-15
1.11547e-15
1.09141e-15
1.06882e-15
1.04788e-15
1.3205e-15
1.31832e-15
1.31397e-15
1.3075e-15
1.29898e-15
1.28851e-15
1.2762e-15
1.2622e-15
1.24669e-15
1.22988e-15
1.212e-15
1.19329e-15
1.17403e-15
1.15449e-15
1.13494e-15
1.11565e-15
1.09686e-15
1.07881e-15
1.06169e-15
1.04567e-15
1.24451e-15
1.24298e-15
1.23992e-15
1.23537e-15
1.22937e-15
1.22198e-15
1.21326e-15
1.20332e-15
1.19227e-15
1.18024e-15
1.16738e-15
1.15386e-15
1.13985e-15
1.12555e-15
1.11114e-15
1.09683e-15
1.08279e-15
1.06919e-15
1.0562e-15
1.04394e-15
1.19043e-15
1.18934e-15
1.18715e-15
1.18389e-15
1.17959e-15
1.17428e-15
1.168e-15
1.16083e-15
1.15284e-15
1.14411e-15
1.13474e-15
1.12485e-15
1.11456e-15
1.10401e-15
1.09332e-15
1.08264e-15
1.0721e-15
1.06184e-15
1.05197e-15
1.04261e-15
1.15131e-15
1.15051e-15
1.14892e-15
1.14656e-15
1.14343e-15
1.13956e-15
1.13499e-15
1.12975e-15
1.1239e-15
1.1175e-15
1.11061e-15
1.10332e-15
1.0957e-15
1.08786e-15
1.07989e-15
1.0719e-15
1.06397e-15
1.05621e-15
1.04872e-15
1.04158e-15
1.12263e-15
1.12205e-15
1.12088e-15
1.11915e-15
1.11685e-15
1.11401e-15
1.11064e-15
1.10679e-15
1.10247e-15
1.09774e-15
1.09264e-15
1.08722e-15
1.08156e-15
1.07571e-15
1.06975e-15
1.06374e-15
1.05777e-15
1.05191e-15
1.04622e-15
1.04078e-15
1.10142e-15
1.10099e-15
1.10012e-15
1.09884e-15
1.09714e-15
1.09504e-15
1.09254e-15
1.08969e-15
1.08648e-15
1.08297e-15
1.07917e-15
1.07514e-15
1.07091e-15
1.06653e-15
1.06206e-15
1.05754e-15
1.05304e-15
1.04861e-15
1.0443e-15
1.04017e-15
1.08562e-15
1.0853e-15
1.08466e-15
1.0837e-15
1.08244e-15
1.08087e-15
1.07902e-15
1.07689e-15
1.0745e-15
1.07188e-15
1.06904e-15
1.06603e-15
1.06286e-15
1.05958e-15
1.05622e-15
1.05283e-15
1.04944e-15
1.04609e-15
1.04283e-15
1.0397e-15
1.07379e-15
1.07355e-15
1.07307e-15
1.07236e-15
1.07142e-15
1.07025e-15
1.06886e-15
1.06727e-15
1.06549e-15
1.06353e-15
1.06141e-15
1.05915e-15
1.05678e-15
1.05432e-15
1.0518e-15
1.04925e-15
1.0467e-15
1.04417e-15
1.04171e-15
1.03933e-15
1.06492e-15
1.06474e-15
1.06438e-15
1.06385e-15
1.06314e-15
1.06227e-15
1.06123e-15
1.06004e-15
1.05871e-15
1.05724e-15
1.05565e-15
1.05396e-15
1.05218e-15
1.05034e-15
1.04844e-15
1.04653e-15
1.04461e-15
1.04271e-15
1.04085e-15
1.03906e-15
1.05825e-15
1.05811e-15
1.05784e-15
1.05744e-15
1.05692e-15
1.05626e-15
1.05549e-15
1.05459e-15
1.05359e-15
1.0525e-15
1.05131e-15
1.05004e-15
1.04871e-15
1.04732e-15
1.04591e-15
1.04447e-15
1.04302e-15
1.0416e-15
1.0402e-15
1.03885e-15
1.05323e-15
1.05313e-15
1.05293e-15
1.05263e-15
1.05224e-15
1.05175e-15
1.05117e-15
1.0505e-15
1.04975e-15
1.04893e-15
1.04803e-15
1.04709e-15
1.04609e-15
1.04505e-15
1.04399e-15
1.04291e-15
1.04183e-15
1.04075e-15
1.0397e-15
1.03869e-15
1.04948e-15
1.0494e-15
1.04925e-15
1.04902e-15
1.04873e-15
1.04836e-15
1.04792e-15
1.04742e-15
1.04686e-15
1.04624e-15
1.04558e-15
1.04487e-15
1.04412e-15
1.04334e-15
1.04254e-15
1.04173e-15
1.04092e-15
1.04012e-15
1.03933e-15
1.03857e-15
1.04667e-15
1.04661e-15
1.0465e-15
1.04633e-15
1.0461e-15
1.04583e-15
1.0455e-15
1.04512e-15
1.0447e-15
1.04424e-15
1.04374e-15
1.0432e-15
1.04264e-15
1.04206e-15
1.04146e-15
1.04085e-15
1.04025e-15
1.03964e-15
1.03905e-15
1.03848e-15
1.04458e-15
1.04454e-15
1.04446e-15
1.04433e-15
1.04416e-15
1.04395e-15
1.0437e-15
1.04342e-15
1.0431e-15
1.04275e-15
1.04237e-15
1.04197e-15
1.04155e-15
1.04111e-15
1.04066e-15
1.0402e-15
1.03974e-15
1.03929e-15
1.03884e-15
1.03841e-15
1.04306e-15
1.04303e-15
1.04296e-15
1.04286e-15
1.04273e-15
1.04258e-15
1.04239e-15
1.04217e-15
1.04193e-15
1.04166e-15
1.04137e-15
1.04107e-15
1.04075e-15
1.04041e-15
1.04007e-15
1.03972e-15
1.03937e-15
1.03903e-15
1.03869e-15
1.03836e-15
1.04197e-15
1.04194e-15
1.04189e-15
1.04181e-15
1.04171e-15
1.04159e-15
1.04144e-15
1.04128e-15
1.04109e-15
1.04088e-15
1.04066e-15
1.04042e-15
1.04017e-15
1.03991e-15
1.03965e-15
1.03938e-15
1.03911e-15
1.03884e-15
1.03858e-15
1.03833e-15
1.04122e-15
1.0412e-15
1.04116e-15
1.04109e-15
1.04101e-15
1.04091e-15
1.0408e-15
1.04066e-15
1.04051e-15
1.04035e-15
1.04017e-15
1.03998e-15
1.03978e-15
1.03957e-15
1.03936e-15
1.03914e-15
1.03893e-15
1.03871e-15
1.0385e-15
1.0383e-15
1.04075e-15
1.04073e-15
1.0407e-15
1.04065e-15
1.04058e-15
1.04049e-15
1.04039e-15
1.04028e-15
1.04015e-15
1.04001e-15
1.03986e-15
1.0397e-15
1.03953e-15
1.03936e-15
1.03918e-15
1.039e-15
1.03881e-15
1.03863e-15
1.03846e-15
1.03829e-15
1.04053e-15
1.04051e-15
1.04048e-15
1.04043e-15
1.04037e-15
1.04029e-15
1.0402e-15
1.0401e-15
1.03998e-15
1.03985e-15
1.03972e-15
1.03957e-15
1.03941e-15
1.03926e-15
1.03909e-15
1.03893e-15
1.03876e-15
1.0386e-15
1.03843e-15
1.03828e-15
)
;

boundaryField
{
    topWall
    {
        type            calculated;
        value           uniform 0;
    }
    bottomWall
    {
        type            zeroGradient;
    }
    sideWallL
    {
        type            symmetry;
    }
    sideWallR
    {
        type            calculated;
        value           uniform 0;
    }
    frontAndBack
    {
        type            empty;
    }
}


// ************************************************************************* //
