/*--------------------------------*- C++ -*----------------------------------*\
  =========                 |
  \\      /  F ield         | OpenFOAM: The Open Source CFD Toolbox
   \\    /   O peration     | Website:  https://openfoam.org
    \\  /    A nd           | Version:  7
     \\/     M anipulation  |
\*---------------------------------------------------------------------------*/
FoamFile
{
    version     2.0;
    format      ascii;
    class       volScalarField;
    location    "39";
    object      rhois;
}
// * * * * * * * * * * * * * * * * * * * * * * * * * * * * * * * * * * * * * //

dimensions      [1 -3 0 0 0 0 0];

internalField   nonuniform List<scalar> 
900
(
2.19584
2.19281
2.18661
2.17692
2.16326
2.14495
2.12104
2.09028
2.05104
2.00121
1.93803
1.85797
1.75641
1.62716
1.46141
1.24498
0.953042
0.555701
0.130933
0.000407503
0.326027
0.324787
0.322254
0.318317
0.312809
0.305497
0.296078
0.284178
0.26935
0.251088
0.228864
0.202211
0.170888
0.13518
0.0964331
0.0578453
0.0252123
0.00564061
0.000245427
9.07444e-08
0.0600514
0.0596664
0.0588829
0.0576741
0.056
0.0538089
0.0510394
0.047626
0.0435077
0.0386454
0.0330481
0.0268143
0.020187
0.0136112
0.00774939
0.00335957
0.0009144
0.000106479
2.38366e-06
2.24255e-09
0.0112029
0.011097
0.0108827
0.0105549
0.0101071
0.00953164
0.00882175
0.00797391
0.00699162
0.00589062
0.00470524
0.00349454
0.00234461
0.00136007
0.000636755
0.000215266
4.36963e-05
3.91348e-06
9.51404e-08
3.98396e-10
0.00205575
0.00202977
0.00197748
0.00189835
0.00179181
0.00165762
0.00149636
0.00131011
0.00110328
0.000883501
0.000662182
0.000454268
0.000276311
0.000142307
5.79993e-05
1.69268e-05
3.05574e-06
2.78468e-07
1.01868e-08
1.57789e-10
0.000375795
0.000369879
0.000358047
0.000340322
0.000316811
0.000287784
0.00025379
0.000215786
0.000175254
0.000134268
9.54094e-05
6.14537e-05
3.47708e-05
1.65544e-05
6.25377e-06
1.73248e-06
3.18264e-07
3.46688e-08
2.0972e-09
9.05127e-11
6.97668e-05
6.8472e-05
6.58969e-05
6.20771e-05
5.70808e-05
5.10265e-05
4.41028e-05
3.65864e-05
2.88509e-05
2.13537e-05
1.45895e-05
9.00362e-06
4.87864e-06
2.23776e-06
8.29735e-07
2.35274e-07
4.8053e-08
6.75243e-09
6.70293e-10
6.31617e-11
1.34293e-05
1.31483e-05
1.25926e-05
1.17753e-05
1.07195e-05
9.46083e-06
8.05043e-06
6.55652e-06
5.0629e-06
3.66238e-06
2.44419e-06
1.47636e-06
7.8821e-07
3.61472e-07
1.37782e-07
4.21692e-08
1.00722e-08
1.87175e-09
2.90902e-10
4.94391e-11
2.73554e-06
2.67348e-06
2.55125e-06
2.37281e-06
2.14465e-06
1.87619e-06
1.58016e-06
1.27243e-06
9.71179e-07
6.9504e-07
4.60295e-07
2.77657e-07
1.49767e-07
7.07673e-08
2.86821e-08
9.79557e-09
2.80111e-09
6.85908e-10
1.57157e-10
4.15977e-11
6.01001e-07
5.86715e-07
5.5867e-07
5.17954e-07
4.66288e-07
4.06079e-07
3.40428e-07
2.73029e-07
2.07898e-07
1.48927e-07
9.92911e-08
6.08616e-08
3.38453e-08
1.68489e-08
7.42405e-09
2.87989e-09
9.91513e-10
3.1393e-10
9.95889e-11
3.67143e-11
1.44796e-07
1.413e-07
1.34452e-07
1.24548e-07
1.12041e-07
9.75516e-08
8.18541e-08
6.58396e-08
5.04448e-08
3.65454e-08
2.48287e-08
1.56804e-08
9.12576e-09
4.85829e-09
2.35672e-09
1.04509e-09
4.30725e-10
1.71584e-10
7.09509e-11
3.34862e-11
3.87755e-08
3.78516e-08
3.6044e-08
3.34344e-08
3.0147e-08
2.63475e-08
2.22391e-08
1.80506e-08
1.40179e-08
1.03579e-08
7.23943e-09
4.75868e-09
2.92766e-09
1.68127e-09
9.02532e-10
4.56802e-10
2.22395e-10
1.07974e-10
5.50991e-11
3.1259e-11
1.16591e-08
1.13923e-08
1.08706e-08
1.01175e-08
9.16884e-09
8.07161e-09
6.88279e-09
5.66591e-09
4.48597e-09
3.40271e-09
2.46338e-09
1.69669e-09
1.10985e-09
6.89977e-10
4.09656e-10
2.34872e-10
1.32603e-10
7.58874e-11
4.55944e-11
2.96733e-11
3.96289e-09
3.87814e-09
3.71227e-09
3.47261e-09
3.17007e-09
2.81902e-09
2.43672e-09
2.04239e-09
1.65571e-09
1.29503e-09
9.7531e-10
7.06449e-10
4.92366e-10
3.31154e-10
2.16333e-10
1.38809e-10
8.89344e-11
5.8094e-11
3.954e-11
2.85175e-11
1.52832e-09
1.49859e-09
1.44033e-09
1.35597e-09
1.2491e-09
1.12446e-09
9.87718e-10
8.45222e-10
7.03539e-10
5.68905e-10
4.46614e-10
3.40491e-10
2.52554e-10
1.82974e-10
1.30341e-10
9.2177e-11
6.55228e-11
4.74682e-11
3.55009e-11
2.766e-11
6.69412e-10
6.57902e-10
6.3531e-10
6.02496e-10
5.60739e-10
5.11721e-10
4.57472e-10
4.00276e-10
3.42529e-10
2.86563e-10
2.34445e-10
1.8779e-10
1.47628e-10
1.14359e-10
8.7795e-11
6.7298e-11
5.19517e-11
4.07439e-11
3.27087e-11
2.7015e-11
3.32411e-10
3.2751e-10
3.17871e-10
3.03821e-10
2.85852e-10
2.64608e-10
2.40874e-10
2.15542e-10
1.89564e-10
1.63891e-10
1.394e-10
1.16824e-10
9.66984e-11
7.93288e-11
6.4791e-11
5.29632e-11
4.35795e-11
3.62912e-11
3.07247e-11
2.65249e-11
1.86192e-10
1.8391e-10
1.79412e-10
1.72833e-10
1.64374e-10
1.54301e-10
1.42941e-10
1.30668e-10
1.17892e-10
1.05031e-10
9.24847e-11
8.06089e-11
6.96886e-11
5.99215e-11
5.14116e-11
4.41746e-11
3.81526e-11
3.32358e-11
2.92845e-11
2.61496e-11
1.16594e-10
1.15441e-10
1.13164e-10
1.09821e-10
1.05502e-10
1.00322e-10
9.44274e-11
8.79876e-11
8.11899e-11
7.42311e-11
6.73063e-11
6.05971e-11
5.42602e-11
4.84182e-11
4.31542e-11
3.85111e-11
3.44945e-11
3.10801e-11
2.82216e-11
2.58604e-11
8.05963e-11
7.99698e-11
7.87303e-11
7.69046e-11
7.45338e-11
7.16729e-11
6.83905e-11
6.47679e-11
6.08965e-11
5.68746e-11
5.28027e-11
4.87781e-11
4.48899e-11
4.12138e-11
3.78084e-11
3.47137e-11
3.19513e-11
2.95256e-11
2.74272e-11
2.56367e-11
6.05733e-11
6.02105e-11
5.94916e-11
5.84296e-11
5.70446e-11
5.53639e-11
5.34216e-11
5.1259e-11
4.89232e-11
4.64659e-11
4.39415e-11
4.14045e-11
3.89071e-11
3.64964e-11
3.42124e-11
3.20862e-11
3.01397e-11
2.83854e-11
2.68275e-11
2.5463e-11
4.87196e-11
4.84979e-11
4.80577e-11
4.74059e-11
4.65527e-11
4.55123e-11
4.43027e-11
4.29457e-11
4.14669e-11
3.98948e-11
3.82601e-11
3.65946e-11
3.49298e-11
3.32956e-11
3.17188e-11
3.02224e-11
2.88244e-11
2.7538e-11
2.63713e-11
2.5328e-11
4.1325e-11
4.11831e-11
4.09012e-11
4.04827e-11
3.99332e-11
3.92606e-11
3.84745e-11
3.75872e-11
3.66132e-11
3.55687e-11
3.4472e-11
3.33422e-11
3.21988e-11
3.10613e-11
2.99476e-11
2.88742e-11
2.78552e-11
2.69018e-11
2.60225e-11
2.52229e-11
3.65079e-11
3.64137e-11
3.62261e-11
3.59473e-11
3.55804e-11
3.51296e-11
3.46007e-11
3.40008e-11
3.33382e-11
3.2623e-11
3.18659e-11
3.10791e-11
3.0275e-11
2.94663e-11
2.86655e-11
2.78841e-11
2.71328e-11
2.64205e-11
2.57547e-11
2.5141e-11
3.32572e-11
3.31926e-11
3.3064e-11
3.28726e-11
3.26202e-11
3.23093e-11
3.19433e-11
3.15265e-11
3.10641e-11
3.05622e-11
3.00277e-11
2.94682e-11
2.88921e-11
2.83077e-11
2.77237e-11
2.71484e-11
2.65896e-11
2.60542e-11
2.55484e-11
2.50771e-11
3.10003e-11
3.09549e-11
3.08646e-11
3.07299e-11
3.05521e-11
3.03327e-11
3.00737e-11
2.97779e-11
2.94486e-11
2.90895e-11
2.87053e-11
2.8301e-11
2.78821e-11
2.74545e-11
2.70241e-11
2.65968e-11
2.61785e-11
2.57743e-11
2.53893e-11
2.50275e-11
2.93975e-11
2.9365e-11
2.93003e-11
2.92038e-11
2.90762e-11
2.89184e-11
2.8732e-11
2.85185e-11
2.82801e-11
2.80194e-11
2.77394e-11
2.74436e-11
2.71356e-11
2.68196e-11
2.64998e-11
2.61805e-11
2.58658e-11
2.55599e-11
2.52665e-11
2.49888e-11
2.82388e-11
2.82152e-11
2.81682e-11
2.80979e-11
2.8005e-11
2.78901e-11
2.77539e-11
2.75979e-11
2.74232e-11
2.72318e-11
2.70256e-11
2.6807e-11
2.65787e-11
2.63435e-11
2.61045e-11
2.58647e-11
2.56273e-11
2.53953e-11
2.51716e-11
2.49588e-11
2.73896e-11
2.73722e-11
2.73376e-11
2.7286e-11
2.72176e-11
2.71329e-11
2.70325e-11
2.69172e-11
2.67881e-11
2.66463e-11
2.64933e-11
2.63307e-11
2.61604e-11
2.59844e-11
2.5805e-11
2.56245e-11
2.5445e-11
2.52689e-11
2.50984e-11
2.49355e-11
2.67606e-11
2.67477e-11
2.67221e-11
2.66837e-11
2.6633e-11
2.65701e-11
2.64955e-11
2.64098e-11
2.63136e-11
2.62079e-11
2.60937e-11
2.59721e-11
2.58446e-11
2.57125e-11
2.55775e-11
2.54412e-11
2.53054e-11
2.51718e-11
2.5042e-11
2.49175e-11
2.62911e-11
2.62815e-11
2.62623e-11
2.62337e-11
2.61958e-11
2.61488e-11
2.60931e-11
2.6029e-11
2.59571e-11
2.5878e-11
2.57924e-11
2.57012e-11
2.56054e-11
2.5506e-11
2.54043e-11
2.53014e-11
2.51986e-11
2.50972e-11
2.49985e-11
2.49036e-11
2.59386e-11
2.59314e-11
2.59171e-11
2.58956e-11
2.58672e-11
2.5832e-11
2.57902e-11
2.57422e-11
2.56882e-11
2.56288e-11
2.55645e-11
2.5496e-11
2.54239e-11
2.53491e-11
2.52723e-11
2.51946e-11
2.51169e-11
2.504e-11
2.4965e-11
2.48928e-11
2.56731e-11
2.56677e-11
2.56569e-11
2.56408e-11
2.56194e-11
2.55929e-11
2.55615e-11
2.55254e-11
2.54849e-11
2.54402e-11
2.53919e-11
2.53403e-11
2.5286e-11
2.52296e-11
2.51718e-11
2.51131e-11
2.50544e-11
2.49962e-11
2.49394e-11
2.48846e-11
2.54725e-11
2.54684e-11
2.54603e-11
2.54482e-11
2.54321e-11
2.54122e-11
2.53886e-11
2.53614e-11
2.53309e-11
2.52973e-11
2.5261e-11
2.52222e-11
2.51813e-11
2.51388e-11
2.50952e-11
2.5051e-11
2.50067e-11
2.49627e-11
2.49198e-11
2.48783e-11
2.53209e-11
2.53179e-11
2.53117e-11
2.53026e-11
2.52905e-11
2.52755e-11
2.52577e-11
2.52373e-11
2.52144e-11
2.51891e-11
2.51617e-11
2.51325e-11
2.51018e-11
2.50699e-11
2.5037e-11
2.50037e-11
2.49703e-11
2.49372e-11
2.49048e-11
2.48734e-11
2.52063e-11
2.5204e-11
2.51994e-11
2.51926e-11
2.51835e-11
2.51722e-11
2.51588e-11
2.51434e-11
2.51262e-11
2.51072e-11
2.50866e-11
2.50647e-11
2.50416e-11
2.50176e-11
2.49929e-11
2.49678e-11
2.49427e-11
2.49178e-11
2.48934e-11
2.48697e-11
2.51199e-11
2.51181e-11
2.51147e-11
2.51095e-11
2.51027e-11
2.50942e-11
2.50841e-11
2.50726e-11
2.50596e-11
2.50453e-11
2.50299e-11
2.50134e-11
2.4996e-11
2.4978e-11
2.49595e-11
2.49407e-11
2.49218e-11
2.49031e-11
2.48847e-11
2.48669e-11
2.50548e-11
2.50535e-11
2.50509e-11
2.5047e-11
2.50418e-11
2.50355e-11
2.50279e-11
2.50192e-11
2.50095e-11
2.49987e-11
2.49871e-11
2.49748e-11
2.49617e-11
2.49482e-11
2.49343e-11
2.49202e-11
2.4906e-11
2.4892e-11
2.48782e-11
2.48648e-11
2.50061e-11
2.50051e-11
2.50031e-11
2.50002e-11
2.49963e-11
2.49915e-11
2.49858e-11
2.49793e-11
2.49719e-11
2.49639e-11
2.49551e-11
2.49458e-11
2.4936e-11
2.49259e-11
2.49154e-11
2.49048e-11
2.48942e-11
2.48836e-11
2.48733e-11
2.48632e-11
2.49699e-11
2.49691e-11
2.49676e-11
2.49654e-11
2.49625e-11
2.49588e-11
2.49545e-11
2.49496e-11
2.4944e-11
2.49379e-11
2.49313e-11
2.49243e-11
2.49169e-11
2.49093e-11
2.49014e-11
2.48934e-11
2.48854e-11
2.48774e-11
2.48696e-11
2.48621e-11
2.49433e-11
2.49427e-11
2.49416e-11
2.49399e-11
2.49376e-11
2.49348e-11
2.49316e-11
2.49278e-11
2.49236e-11
2.49189e-11
2.49139e-11
2.49085e-11
2.49029e-11
2.48971e-11
2.48911e-11
2.4885e-11
2.48789e-11
2.48729e-11
2.48669e-11
2.48612e-11
2.49242e-11
2.49238e-11
2.49229e-11
2.49216e-11
2.49198e-11
2.49177e-11
2.49151e-11
2.49122e-11
2.49089e-11
2.49053e-11
2.49014e-11
2.48972e-11
2.48929e-11
2.48884e-11
2.48837e-11
2.4879e-11
2.48743e-11
2.48696e-11
2.4865e-11
2.48606e-11
2.49111e-11
2.49108e-11
2.49101e-11
2.4909e-11
2.49076e-11
2.49059e-11
2.49038e-11
2.49015e-11
2.48988e-11
2.48959e-11
2.48928e-11
2.48895e-11
2.4886e-11
2.48824e-11
2.48787e-11
2.48749e-11
2.48711e-11
2.48674e-11
2.48637e-11
2.48602e-11
2.4903e-11
2.49027e-11
2.49021e-11
2.49012e-11
2.49e-11
2.48985e-11
2.48968e-11
2.48948e-11
2.48926e-11
2.48901e-11
2.48875e-11
2.48847e-11
2.48817e-11
2.48787e-11
2.48755e-11
2.48723e-11
2.48691e-11
2.4866e-11
2.48629e-11
2.48599e-11
2.48991e-11
2.48988e-11
2.48982e-11
2.48974e-11
2.48963e-11
2.4895e-11
2.48934e-11
2.48916e-11
2.48895e-11
2.48873e-11
2.48849e-11
2.48823e-11
2.48796e-11
2.48769e-11
2.4874e-11
2.48711e-11
2.48682e-11
2.48653e-11
2.48625e-11
2.48598e-11
)
;

boundaryField
{
    topWall
    {
        type            zeroGradient;
    }
    bottomWall
    {
        type            zeroGradient;
    }
    sideWallL
    {
        type            symmetry;
    }
    sideWallR
    {
        type            zeroGradient;
    }
    frontAndBack
    {
        type            empty;
    }
}


// ************************************************************************* //
