/*--------------------------------*- C++ -*----------------------------------*\
  =========                 |
  \\      /  F ield         | OpenFOAM: The Open Source CFD Toolbox
   \\    /   O peration     | Website:  https://openfoam.org
    \\  /    A nd           | Version:  7
     \\/     M anipulation  |
\*---------------------------------------------------------------------------*/
FoamFile
{
    version     2.0;
    format      ascii;
    class       volScalarField;
    location    "39";
    object      T;
}
// * * * * * * * * * * * * * * * * * * * * * * * * * * * * * * * * * * * * * //

dimensions      [0 0 0 1 0 0 0];

internalField   nonuniform List<scalar> 
900
(
625.389
625.322
625.186
624.973
624.672
624.269
623.743
623.064
622.197
621.092
619.685
617.891
615.597
612.647
608.809
603.654
596.12
582.738
550.285
444.683
571.782
571.661
571.412
571.025
570.477
569.741
568.777
567.529
565.923
563.859
561.197
557.739
553.204
547.165
538.951
527.409
510.365
483.202
435.037
344.01
533.202
533.046
532.727
532.229
531.525
530.578
529.335
527.726
525.652
522.978
519.52
515.013
509.078
501.156
490.39
475.433
454.117
422.962
376.896
311.515
501.002
500.806
500.406
499.781
498.9
497.718
496.171
494.176
491.616
488.336
484.125
478.694
471.641
462.405
450.198
433.916
412.068
382.822
344.557
297.699
472.219
471.989
471.52
470.788
469.76
468.385
466.596
464.3
461.378
457.669
452.963
446.982
439.362
429.623
417.152
401.195
380.905
355.535
324.926
290.39
446.34
446.086
445.566
444.758
443.626
442.119
440.168
437.684
434.549
430.612
425.682
419.517
411.815
402.21
390.275
375.556
357.65
336.374
312.061
285.904
423.159
422.89
422.339
421.486
420.294
418.716
416.686
414.12
410.91
406.926
402.002
395.942
388.516
379.463
368.515
355.427
340.057
322.477
303.115
282.881
402.508
402.232
401.67
400.8
399.59
397.996
395.958
393.402
390.235
386.346
381.603
375.854
368.934
360.67
350.906
339.535
326.549
312.11
296.614
280.718
384.218
383.944
383.386
382.525
381.332
379.768
377.782
375.309
372.273
368.585
364.142
358.834
352.547
345.174
336.635
326.903
316.032
304.201
291.736
279.11
368.114
367.848
367.308
366.476
365.329
363.832
361.942
359.606
356.764
353.346
349.276
344.476
338.873
332.405
325.042
316.796
307.747
298.06
287.99
277.881
354.015
353.763
353.25
352.463
351.382
349.978
348.216
346.054
343.445
340.336
336.673
332.404
327.484
321.883
315.598
308.662
301.157
293.225
285.064
276.924
341.738
341.502
341.024
340.294
339.293
337.999
336.384
334.417
332.06
329.276
326.027
322.281
318.012
313.209
307.886
302.082
295.874
289.379
282.749
276.168
331.101
330.884
330.446
329.778
328.866
327.691
326.234
324.468
322.369
319.908
317.062
313.81
310.141
306.056
301.575
296.738
291.614
286.295
280.901
275.566
321.929
321.733
321.337
320.734
319.914
318.862
317.564
315.999
314.151
312
309.531
306.734
303.606
300.155
296.401
292.385
288.162
283.808
279.414
275.082
314.057
313.882
313.528
312.991
312.263
311.332
310.188
308.816
307.206
305.344
303.222
300.835
298.186
295.285
292.155
288.829
285.355
281.793
278.213
274.692
307.33
307.175
306.863
306.39
305.75
304.934
303.936
302.746
301.355
299.757
297.946
295.923
293.693
291.268
288.667
285.921
283.068
280.155
277.238
274.375
301.606
301.47
301.197
300.784
300.227
299.52
298.657
297.633
296.442
295.08
293.546
291.841
289.974
287.954
285.801
283.539
281.199
278.821
276.445
274.117
296.754
296.636
296.4
296.043
295.562
294.954
294.214
293.339
292.327
291.174
289.882
288.454
286.897
285.222
283.445
281.587
279.673
277.732
275.799
273.908
292.658
292.557
292.354
292.048
291.636
291.117
290.488
289.746
288.89
287.921
286.839
285.648
284.356
282.972
281.51
279.987
278.424
276.844
275.272
273.737
289.213
289.127
288.954
288.693
288.344
287.904
287.372
286.747
286.028
285.218
284.316
283.328
282.261
281.121
279.922
278.677
277.403
276.118
274.842
273.597
286.327
286.254
286.107
285.887
285.592
285.222
284.775
284.252
283.652
282.977
282.23
281.414
280.535
279.6
278.619
277.604
276.568
275.525
274.492
273.483
283.917
283.856
283.733
283.548
283.301
282.991
282.618
282.182
281.684
281.126
280.509
279.837
279.116
278.352
277.553
276.727
275.886
275.041
274.205
273.391
281.913
281.861
281.759
281.604
281.399
281.141
280.831
280.47
280.059
279.599
279.092
278.542
277.953
277.33
276.68
276.011
275.33
274.647
273.972
273.315
280.252
280.209
280.124
279.996
279.825
279.612
279.356
279.059
278.721
278.343
277.929
277.48
277
276.495
275.968
275.426
274.877
274.326
273.783
273.254
278.88
278.845
278.775
278.669
278.528
278.353
278.143
277.899
277.622
277.314
276.976
276.611
276.222
275.813
275.387
274.951
274.508
274.065
273.629
273.204
277.752
277.723
277.665
277.578
277.463
277.319
277.148
276.949
276.723
276.473
276.199
275.903
275.589
275.258
274.915
274.564
274.209
273.854
273.504
273.163
276.827
276.803
276.756
276.685
276.591
276.474
276.334
276.173
275.99
275.787
275.565
275.327
275.074
274.808
274.533
274.251
273.966
273.682
273.402
273.13
276.071
276.052
276.013
275.956
275.879
275.785
275.671
275.541
275.393
275.229
275.051
274.859
274.656
274.443
274.223
273.998
273.771
273.544
273.321
273.104
275.456
275.44
275.409
275.363
275.301
275.224
275.133
275.028
274.909
274.778
274.635
274.481
274.319
274.149
273.973
273.794
273.613
273.432
273.255
273.083
274.957
274.944
274.919
274.882
274.833
274.771
274.698
274.613
274.518
274.413
274.299
274.176
274.047
273.911
273.772
273.629
273.486
273.343
273.202
273.065
274.554
274.544
274.524
274.494
274.454
274.405
274.347
274.279
274.203
274.12
274.029
273.931
273.828
273.721
273.61
273.497
273.384
273.271
273.16
273.052
274.23
274.222
274.206
274.182
274.15
274.111
274.064
274.011
273.951
273.884
273.812
273.735
273.653
273.568
273.481
273.392
273.302
273.213
273.126
273.041
273.97
273.963
273.951
273.932
273.907
273.875
273.839
273.796
273.748
273.696
273.639
273.578
273.514
273.447
273.378
273.308
273.238
273.168
273.099
273.032
273.762
273.757
273.747
273.732
273.712
273.688
273.658
273.625
273.587
273.546
273.501
273.453
273.403
273.35
273.296
273.241
273.186
273.131
273.077
273.025
273.597
273.593
273.585
273.573
273.558
273.538
273.515
273.489
273.459
273.427
273.392
273.354
273.315
273.274
273.231
273.188
273.145
273.102
273.06
273.02
273.466
273.463
273.457
273.448
273.435
273.42
273.402
273.382
273.358
273.333
273.306
273.276
273.245
273.213
273.18
273.147
273.113
273.08
273.047
273.015
273.363
273.361
273.356
273.349
273.339
273.327
273.313
273.297
273.279
273.259
273.238
273.215
273.191
273.166
273.14
273.114
273.088
273.062
273.037
273.012
273.283
273.281
273.277
273.272
273.264
273.255
273.244
273.231
273.217
273.202
273.185
273.167
273.148
273.129
273.109
273.089
273.068
273.048
273.028
273.009
273.22
273.219
273.216
273.211
273.206
273.198
273.19
273.18
273.169
273.157
273.144
273.13
273.115
273.1
273.085
273.069
273.053
273.037
273.022
273.007
273.172
273.171
273.169
273.165
273.161
273.155
273.148
273.141
273.132
273.122
273.112
273.101
273.09
273.078
273.066
273.054
273.041
273.029
273.017
273.006
273.136
273.135
273.133
273.13
273.127
273.122
273.117
273.111
273.104
273.097
273.088
273.08
273.071
273.062
273.052
273.042
273.033
273.023
273.014
273.004
273.109
273.109
273.107
273.105
273.102
273.098
273.094
273.089
273.084
273.078
273.071
273.064
273.057
273.049
273.042
273.034
273.026
273.018
273.011
273.004
273.091
273.09
273.089
273.087
273.084
273.081
273.078
273.074
273.069
273.064
273.059
273.053
273.047
273.041
273.035
273.028
273.022
273.015
273.009
273.003
273.079
273.078
273.077
273.075
273.073
273.071
273.068
273.064
273.06
273.056
273.051
273.046
273.041
273.035
273.03
273.024
273.019
273.013
273.008
273.003
273.073
273.072
273.071
273.07
273.068
273.066
273.063
273.059
273.056
273.052
273.047
273.043
273.038
273.033
273.028
273.023
273.017
273.012
273.007
273.002
)
;

boundaryField
{
    topWall
    {
        type            zeroGradient;
    }
    bottomWall
    {
        type            codedFixedValue;
        value           uniform 663;
        name            heating;
        code            #{
            const scalar t = this->db().time().value();
            const scalar Ttemp = 273 + 10*t;
            operator==(Ttemp);
        #};
    }
    sideWallL
    {
        type            symmetry;
    }
    sideWallR
    {
        type            fixedValue;
        value           uniform 273;
    }
    frontAndBack
    {
        type            empty;
    }
}


// ************************************************************************* //
