/*--------------------------------*- C++ -*----------------------------------*\
  =========                 |
  \\      /  F ield         | OpenFOAM: The Open Source CFD Toolbox
   \\    /   O peration     | Website:  https://openfoam.org
    \\  /    A nd           | Version:  7
     \\/     M anipulation  |
\*---------------------------------------------------------------------------*/
FoamFile
{
    version     2.0;
    format      ascii;
    class       volScalarField;
    location    "20";
    object      gradTy;
}
// * * * * * * * * * * * * * * * * * * * * * * * * * * * * * * * * * * * * * //

dimensions      [0 -1 0 1 0 0 0];

internalField   nonuniform List<scalar> 
900
(
-159024
-159095
-159246
-159488
-159845
-160350
-161052
-162021
-163358
-165211
-167799
-171458
-176716
-184441
-196140
-214617
-245540
-301600
-414544
-672352
-136844
-136910
-137047
-137267
-137590
-138044
-138673
-139534
-140712
-142324
-144542
-147612
-151897
-157928
-166485
-178626
-195437
-216256
-230203
-179569
-117365
-117421
-117537
-117723
-117994
-118373
-118889
-119586
-120521
-121769
-123430
-125631
-128517
-132232
-136818
-141938
-146111
-144769
-125962
-64454.7
-100264
-100308
-100398
-100542
-100749
-101034
-101414
-101915
-102562
-103389
-104425
-105683
-107135
-108644
-109834
-109808
-106645
-96580.2
-73323.4
-29887.8
-85274.4
-85304.9
-85367.4
-85465.3
-85603.4
-85787.6
-86024.8
-86320.9
-86678.4
-87091.1
-87534
-87944.4
-88188
-87997.4
-86869.4
-83904.8
-77604.6
-65748.7
-45788.2
-16714.2
-72169.6
-72186.7
-72221.2
-72273.5
-72343.8
-72431.2
-72532.2
-72638.9
-72734.6
-72787.1
-72738.1
-72484.9
-71852.7
-70552.4
-68123.3
-63871.3
-56841.1
-45928
-30325.6
-10513.8
-60752.8
-60757.5
-60766.2
-60776.8
-60786
-60787.3
-60770.2
-60717.2
-60599.3
-60370.5
-59957.9
-59248
-58068.8
-56166.9
-53185.1
-48655.9
-42038.9
-32857.5
-20989.9
-7096.98
-50849.8
-50843.8
-50830.3
-50805.7
-50763.9
-50695
-50584.1
-50408.2
-50133
-49707.8
-49058.7
-48079.7
-46623.3
-44491.4
-41433.1
-37160.1
-31394.5
-23970.9
-14993.8
-5002.68
-42303.5
-42289
-42258.1
-42205.9
-42125.1
-42004
-41825.4
-41564.7
-41187
-40643.5
-39867.1
-38768.2
-37230.5
-35110.2
-32242.7
-28462
-23640.4
-17751.9
-10950.3
-3625.31
-34970.4
-34949.8
-34906.2
-34834.7
-34727.1
-34571.2
-34350
-34039.3
-33606.9
-33009.5
-32190.6
-31079
-29588.3
-27619.7
-25070.7
-21852.1
-17915.9
-13291.2
-8120.58
-2675.26
-28717.9
-28693.4
-28641.9
-28558.6
-28435.4
-28260.7
-28018.4
-27686.8
-27237.8
-26635
-25833.5
-24779.2
-23410.7
-21662.9
-19474.9
-16803.2
-13638.8
-10027.5
-6084.83
-1997.9
-23422.7
-23396.3
-23341.2
-23252.7
-23123.4
-22942.8
-22696.8
-22366.6
-21928.8
-21354.4
-20608.7
-19652.3
-18442.9
-16939.2
-15107
-12928.2
-10411.4
-7602.48
-4590.16
-1503.53
-18970.4
-18943.7
-18888.2
-18799.8
-18672
-18495.6
-18258.6
-17945.6
-17537.7
-17012.5
-16344.1
-15504.6
-14465.7
-13202.1
-11696
-9942.76
-7957.48
-5779.89
-3476.44
-1136.7
-15254.5
-15228.8
-15175.5
-15091.2
-14970.2
-14805
-14585.7
-14299.9
-13932.9
-13467.8
-12885.8
-12167.5
-11294.7
-10252.4
-9032.37
-7636.68
-6081.34
-4398.74
-2637.89
-861.332
-12177.2
-12153.3
-12104
-12026.3
-11915.8
-11766.2
-11569.6
-11316.3
-10995.3
-10593.9
-10098.9
-9497.1
-8776.97
-7930.17
-6953.85
-5852.89
-4641.91
-3346.34
-2002.06
-653.01
-9648.71
-9627.19
-9582.95
-9513.58
-9415.44
-9283.61
-9111.94
-8893.1
-8618.72
-8279.73
-7866.89
-7371.47
-6786.37
-6107.3
-5334.25
-4472.87
-3535.55
-2541.82
-1517.84
-494.64
-7587.93
-7569.05
-7530.35
-7469.92
-7384.89
-7271.46
-7124.93
-6939.8
-6709.95
-6428.94
-6090.42
-5688.72
-5219.65
-4681.3
-4075.01
-3406.19
-2684.9
-1925.93
-1148.28
-373.934
-5922.03
-5905.85
-5872.75
-5821.24
-5749.13
-5653.53
-5530.9
-5377.2
-5188.01
-4958.83
-4685.38
-4364.05
-3992.48
-3570.12
-3098.8
-2583.28
-2031.49
-1454.49
-866.076
-281.866
-4586.48
-4572.89
-4545.13
-4502.08
-4442.08
-4362.97
-4262.13
-4136.64
-3983.35
-3799.16
-3581.23
-3327.33
-3036.23
-2708.06
-2344.73
-1950.2
-1530.59
-1094.13
-650.794
-211.695
-3524.69
-3513.47
-3490.61
-3455.26
-3406.19
-3341.8
-3260.19
-3159.27
-3036.84
-2890.78
-2719.25
-2520.89
-2295.15
-2042.5
-1764.69
-1464.88
-1147.75
-819.359
-486.909
-158.316
-2687.63
-2678.53
-2660.01
-2631.44
-2591.93
-2540.32
-2475.23
-2395.2
-2298.7
-2184.31
-2050.84
-1897.52
-1724.17
-1531.37
-1320.61
-1094.39
-856.222
-610.54
-362.532
-117.831
-2033.31
-2026.03
-2011.25
-1988.52
-1957.16
-1916.37
-1865.16
-1802.52
-1727.38
-1638.83
-1536.11
-1418.79
-1286.91
-1141.04
-982.408
-812.925
-635.209
-452.495
-268.504
-87.2418
-1526.17
-1520.43
-1508.81
-1490.96
-1466.42
-1434.6
-1394.82
-1346.38
-1288.56
-1220.76
-1142.52
-1053.63
-954.205
-844.764
-726.282
-600.213
-468.484
-333.441
-197.743
-64.232
-1136.44
-1131.99
-1122.96
-1109.13
-1090.17
-1065.65
-1035.13
-998.099
-954.101
-902.737
-843.737
-777.014
-702.718
-621.287
-533.477
-440.378
-343.4
-244.229
-144.762
-47.011
-839.509
-836.091
-829.171
-818.587
-804.109
-785.45
-762.29
-734.299
-701.17
-662.652
-618.59
-568.965
-513.927
-453.833
-389.257
-321.007
-250.105
-177.76
-105.317
-34.1937
-615.206
-612.614
-607.373
-599.37
-588.444
-574.401
-557.022
-536.089
-511.399
-482.798
-450.202
-413.624
-373.202
-329.213
-282.091
-232.426
-180.955
-128.537
-76.124
-24.7108
-447.219
-445.277
-441.352
-435.369
-427.216
-416.762
-403.86
-388.365
-370.148
-349.115
-325.222
-298.5
-269.062
-237.123
-203.004
-167.133
-130.035
-92.3202
-54.6559
-17.7389
-322.487
-321.048
-318.143
-313.718
-307.7
-300
-290.52
-279.165
-265.854
-250.531
-233.177
-213.824
-192.566
-169.563
-145.051
-119.337
-92.7941
-65.8504
-38.973
-12.647
-230.668
-229.613
-227.485
-224.248
-219.852
-214.238
-207.342
-199.103
-189.469
-178.408
-165.916
-152.021
-136.798
-120.365
-102.893
-84.5999
-65.7486
-46.6389
-27.5952
-8.95363
-163.658
-162.893
-161.35
-159.006
-155.828
-151.776
-146.808
-140.887
-133.979
-126.068
-117.154
-107.264
-96.453
-84.8085
-72.4518
-59.5374
-46.2491
-32.7949
-19.3992
-6.29358
-115.173
-114.624
-113.517
-111.836
-109.561
-106.665
-103.122
-98.906
-93.9987
-88.3907
-82.0861
-75.1061
-67.492
-59.307
-50.6371
-41.5902
-32.294
-22.8919
-13.5383
-4.39168
-80.3937
-80.0032
-79.2169
-78.0244
-76.4115
-74.3617
-71.8576
-68.8839
-65.4293
-61.4892
-57.0686
-52.1842
-46.866
-41.1593
-35.1242
-28.8357
-22.3819
-15.861
-9.37832
-3.04193
-55.6601
-55.3853
-54.8322
-53.994
-52.8616
-51.4243
-49.6712
-47.5928
-45.1826
-42.4387
-39.3658
-35.9766
-32.2927
-28.3461
-24.1785
-19.8415
-15.3954
-10.9071
-6.44802
-2.09128
-38.2217
-38.0302
-37.6448
-37.0612
-36.2736
-35.2752
-34.0592
-32.6197
-30.953
-29.0588
-26.9411
-24.6091
-22.0783
-19.371
-16.516
-13.5484
-10.5092
-7.4436
-4.39976
-1.42686
-26.0322
-25.8999
-25.6339
-25.2315
-24.6888
-24.0016
-23.1658
-22.1777
-21.0354
-19.7391
-18.292
-16.7009
-14.9767
-13.1347
-11.1944
-9.17993
-7.11865
-5.041
-2.9792
-0.966097
-17.5845
-17.494
-17.3122
-17.0372
-16.6667
-16.1981
-15.6287
-14.9565
-14.1805
-13.301
-12.3207
-11.2442
-10.0792
-8.8361
-7.52819
-6.17153
-4.78453
-3.38744
-2.00169
-0.649068
-11.7797
-11.7184
-11.5952
-11.4091
-11.1585
-10.8418
-10.4574
-10.0042
-9.48162
-8.89016
-8.23167
-7.50955
-6.72896
-5.89696
-5.02247
-4.11621
-3.19037
-2.25837
-1.33434
-0.432649
-7.82416
-7.78302
-7.70038
-7.57556
-7.40763
-7.19559
-6.93851
-6.63569
-6.28692
-5.89266
-5.45423
-4.97397
-4.45541
-3.90325
-3.32344
-2.72305
-2.11012
-1.49344
-0.882292
-0.28606
-5.1503
-5.12296
-5.06806
-4.98517
-4.87373
-4.73313
-4.56282
-4.36241
-4.13183
-3.87145
-3.58222
-3.26573
-2.92433
-2.56116
-2.18012
-1.78585
-1.3836
-0.979103
-0.578373
-0.187514
-3.35561
-3.33764
-3.30157
-3.24713
-3.17399
-3.08177
-2.97016
-2.83894
-2.68812
-2.51797
-2.32915
-2.12273
-1.90027
-1.66383
-1.41594
-1.15963
-0.898269
-0.635571
-0.375409
-0.121706
-2.1569
-2.14526
-2.1219
-2.08665
-2.03933
-1.9797
-1.90758
-1.82287
-1.72558
-1.61592
-1.49434
-1.36154
-1.21853
-1.06666
-0.907541
-0.743111
-0.575537
-0.407172
-0.240482
-0.0779601
-1.35587
-1.3485
-1.33372
-1.31142
-1.2815
-1.24382
-1.19828
-1.14482
-1.08348
-1.01439
-0.93784
-0.854293
-0.764393
-0.668977
-0.569074
-0.46589
-0.36078
-0.255212
-0.150721
-0.0488597
-0.813471
-0.809027
-0.800109
-0.786666
-0.768628
-0.745926
-0.718501
-0.686327
-0.649429
-0.607898
-0.561915
-0.511758
-0.457818
-0.400601
-0.340722
-0.278904
-0.215956
-0.152751
-0.0902056
-0.0292414
-0.430786
-0.428423
-0.423682
-0.416536
-0.406951
-0.394892
-0.380329
-0.363253
-0.343677
-0.321654
-0.29728
-0.270707
-0.242141
-0.211852
-0.180166
-0.147463
-0.114171
-0.0807513
-0.0476847
-0.0154574
-0.1345
-0.133761
-0.132277
-0.130042
-0.127044
-0.123273
-0.118719
-0.113381
-0.107263
-0.100382
-0.0927688
-0.0844701
-0.0755512
-0.0660961
-0.0562067
-0.046002
-0.0356148
-0.0251889
-0.0148741
-0.0048215
)
;

boundaryField
{
    topWall
    {
        type            calculated;
        value           uniform 0;
    }
    bottomWall
    {
        type            calculated;
        value           nonuniform List<scalar> 
20
(
-170833
-170907
-171062
-171312
-171681
-172204
-172931
-173937
-175328
-177262
-179975
-183831
-189416
-197721
-210548
-231512
-268876
-344816
-529478
-1.07547e+06
)
;
    }
    sideWallL
    {
        type            symmetry;
    }
    sideWallR
    {
        type            calculated;
        value           nonuniform List<scalar> 
45
(
-672352
-179569
-64454.7
-29887.8
-16714.2
-10513.8
-7096.98
-5002.68
-3625.31
-2675.26
-1997.9
-1503.53
-1136.7
-861.332
-653.01
-494.64
-373.934
-281.866
-211.695
-158.316
-117.831
-87.2418
-64.232
-47.011
-34.1937
-24.7108
-17.7389
-12.647
-8.95363
-6.29358
-4.39168
-3.04193
-2.09128
-1.42686
-0.966097
-0.649068
-0.432649
-0.28606
-0.187514
-0.121706
-0.0779601
-0.0488597
-0.0292414
-0.0154574
-0.0048215
)
;
    }
    frontAndBack
    {
        type            empty;
    }
}


// ************************************************************************* //
