/*--------------------------------*- C++ -*----------------------------------*\
  =========                 |
  \\      /  F ield         | OpenFOAM: The Open Source CFD Toolbox
   \\    /   O peration     | Website:  https://openfoam.org
    \\  /    A nd           | Version:  7
     \\/     M anipulation  |
\*---------------------------------------------------------------------------*/
FoamFile
{
    version     2.0;
    format      ascii;
    class       volScalarField;
    location    "20";
    object      gradTx;
}
// * * * * * * * * * * * * * * * * * * * * * * * * * * * * * * * * * * * * * //

dimensions      [0 -1 0 1 0 0 0];

internalField   nonuniform List<scalar> 
900
(
-18.5539
-57.3516
-101.402
-154.845
-222.885
-312.466
-433.263
-599.255
-831.312
-1161.68
-1642.19
-2360.25
-3472.5
-5283.05
-8447.63
-14582
-28326.2
-65150.6
-182664
-598762
-53.3719
-164.925
-291.416
-444.575
-639.076
-894.368
-1237.34
-1706.48
-2358.49
-3279.59
-4605.24
-6556.47
-9510.12
-14141.6
-21728.6
-34817.1
-58656.4
-103854
-188089
-314341
-84.0633
-259.612
-458.181
-697.721
-1000.49
-1395.63
-1922.86
-2638.02
-3621.58
-4992.44
-6930.48
-9714.67
-13788.3
-19871.2
-29145.8
-43533.8
-65955.3
-99917
-145978
-188990
-109.173
-336.878
-593.547
-901.556
-1288.28
-1788.98
-2450.76
-3338.17
-4541.57
-6189.38
-8466.72
-11643
-16111.7
-22442.6
-31434.3
-44110
-61487.9
-83704.7
-107774
-123925
-127.792
-393.923
-692.613
-1048.72
-1492.16
-2060.68
-2803.47
-3785.95
-5096.36
-6854.6
-9223.87
-12424.9
-16750
-22570
-30309.8
-40345.6
-52727.1
-66595
-79285.2
-85778.8
-139.614
-429.852
-753.98
-1137.52
-1610.62
-2210.45
-2984
-3991.72
-5311.75
-7044.98
-9320.1
-12297
-16164.6
-21124.1
-27341.8
-34845.1
-43331.7
-51888.3
-58739.9
-61422.4
-144.895
-445.53
-779.442
-1171.32
-1649.76
-2249.06
-3011.25
-3988.33
-5244.52
-6858.07
-8921.67
-11539.5
-14817.5
-18840.5
-23628.6
-29063.4
-34783.8
-40079.5
-43871
-44939.5
-144.341
-443.219
-773.277
-1157.29
-1621.08
-2194.72
-2913.86
-3820.8
-4965.13
-6403.53
-8197.56
-10408
-13083.5
-16240.4
-19830.8
-23699
-27533.3
-30839.2
-32979.4
-33335.5
-138.963
-426.106
-741.343
-1104.87
-1539.07
-2069.27
-2724.39
-3537.23
-4544.17
-5783.77
-7293.56
-9104.14
-11229.2
-13650.4
-16297.3
-19024.8
-21594.6
-23678.8
-24902.8
-24943
-129.917
-397.811
-690.184
-1024.36
-1419.09
-1894.96
-2474.6
-3182.44
-4043.92
-5083.67
-6322.32
-7771.32
-9425.42
-11252.6
-13182.7
-15096.6
-16823.1
-18149.1
-18852.8
-18759.9
-118.374
-361.964
-626.273
-925.731
-1275.61
-1692.15
-2192.49
-2794.21
-3514.29
-4367.4
-5363.1
-6501.87
-7769.85
-9132.75
-10529.8
-11870
-13033.7
-13883.5
-14286.9
-14147.1
-105.408
-321.888
-555.459
-817.843
-1121.16
-1477.91
-1900.73
-2401.84
-2992.07
-3679.36
-4466.56
-5348.6
-6309.09
-7316.81
-8322.97
-9260.52
-10047.4
-10595.1
-10823.3
-10677.2
-91.9383
-280.394
-482.632
-707.962
-965.8
-1265.54
-1616.28
-2026.26
-2502.03
-3047.23
-3661.01
-4336.11
-5056.75
-5796.81
-6518.79
-7174.44
-7707.97
-8062.26
-8187.92
-8053.45
-78.6885
-239.694
-411.587
-601.617
-816.957
-1064.54
-1350.75
-1680.99
-2058.94
-2485.7
-2958.66
-3470.21
-4006.62
-4547.1
-5063.63
-5522.03
-5884.53
-6114.1
-6180.08
-6064.05
-66.1879
-201.385
-345.027
-502.656
-679.643
-881.009
-1111.16
-1373.5
-1669.91
-2000.09
-2360.78
-2745.06
-3141.62
-3534.45
-3903.05
-4223.41
-4470.04
-4618.81
-4650.51
-4554.23
-54.7837
-166.508
-284.672
-413.447
-556.79
-718.281
-900.897
-1106.71
-1336.5
-1589.29
-1861.86
-2148.31
-2439.7
-2723.98
-2986.35
-3210.09
-3377.98
-3474.25
-3486.75
-3408.98
-44.668
-135.628
-231.423
-335.147
-449.672
-577.515
-720.649
-880.276
-1056.55
-1248.26
-1452.52
-1664.55
-1877.45
-2082.33
-2268.62
-2424.71
-2538.99
-2601.11
-2603.32
-2541.74
-35.9099
-108.935
-185.539
-267.984
-358.331
-458.322
-569.239
-691.736
-825.641
-969.751
-1121.65
-1277.55
-1432.27
-1579.34
-1711.25
-1819.99
-1897.72
-1937.62
-1934.76
-1886.77
-28.4868
-86.3426
-146.813
-211.532
-281.958
-359.281
-444.319
-537.391
-638.183
-745.618
-857.741
-971.653
-1083.51
-1188.65
-1281.78
-1357.39
-1410.2
-1435.69
-1430.7
-1393.8
-22.3141
-67.5801
-114.733
-164.938
-219.216
-278.37
-342.91
-412.959
-488.169
-567.631
-649.814
-732.538
-812.993
-887.842
-953.39
-1005.85
-1041.65
-1057.83
-1052.32
-1024.28
-17.2691
-52.2633
-88.6031
-127.111
-168.492
-213.284
-261.795
-314.042
-369.695
-428.02
-487.846
-547.559
-605.127
-658.184
-704.159
-740.458
-764.68
-774.854
-769.654
-748.575
-13.211
-39.9554
-67.6488
-96.8654
-128.089
-161.672
-197.795
-236.425
-277.274
-319.767
-363.026
-405.869
-446.845
-484.287
-516.415
-541.457
-557.799
-564.135
-559.608
-543.916
-9.99462
-30.2092
-51.0863
-73.0224
-96.3453
-121.284
-147.942
-176.262
-206.008
-236.741
-267.812
-298.368
-327.377
-353.677
-376.039
-393.258
-404.25
-408.149
-404.401
-392.829
-7.48031
-22.5969
-38.1714
-54.4749
-71.7274
-90.0761
-109.575
-130.165
-151.659
-173.726
-195.894
-217.554
-237.98
-256.364
-271.863
-283.66
-291.027
-293.393
-290.399
-281.942
-5.54037
-16.7281
-28.2291
-40.2272
-52.8685
-66.2462
-80.3864
-95.2347
-110.646
-126.377
-142.089
-157.349
-171.65
-184.436
-195.13
-203.181
-208.1
-209.512
-207.184
-201.056
-4.06206
-12.2588
-20.668
-29.413
-38.5898
-48.2568
-58.4241
-69.0455
-80.0116
-91.1462
-102.207
-112.891
-122.848
-131.694
-139.038
-144.508
-147.78
-148.605
-146.833
-142.431
-2.94881
-8.89532
-14.9846
-21.2986
-27.9
-34.8244
-42.074
-49.6114
-57.3556
-65.1802
-72.9146
-80.3481
-87.2388
-93.3255
-98.344
-102.044
-104.211
-104.681
-103.357
-100.221
-2.11999
-6.39259
-10.7602
-15.277
-19.9833
-24.9006
-30.027
-35.3335
-40.7612
-46.2204
-51.5921
-56.7308
-61.471
-65.6359
-69.0474
-71.5388
-72.9673
-73.2256
-72.2518
-70.0362
-1.50969
-4.55064
-7.65433
-10.8561
-14.1817
-17.6439
-21.2393
-24.9458
-28.7212
-32.5028
-36.2079
-39.7371
-42.9781
-45.8114
-48.118
-49.7871
-50.7244
-50.8598
-50.1536
-48.601
-1.06507
-3.20936
-5.39471
-7.64401
-9.97356
-12.3907
-14.8917
-17.4603
-20.0667
-22.6671
-25.2051
-27.613
-29.815
-31.731
-33.2819
-34.3944
-35.0063
-35.0721
-34.5666
-33.4874
-0.744509
-2.24272
-3.76757
-5.33377
-6.95151
-8.6249
-10.3506
-12.1167
-13.9024
-15.6777
-17.4041
-19.0359
-20.5223
-21.8102
-22.847
-23.5844
-23.9819
-24.0099
-23.6523
-22.9082
-0.515718
-1.55308
-2.60759
-3.6886
-4.80243
-5.95128
-7.13236
-8.33723
-9.55142
-10.7545
-11.9205
-13.0189
-14.0159
-14.8761
-15.5651
-16.0512
-16.308
-16.3165
-16.0663
-15.5574
-0.354043
-1.06592
-1.78874
-2.5284
-3.28878
-4.07099
-4.87284
-5.68837
-6.50771
-7.31704
-8.099
-8.83326
-9.49745
-10.0684
-10.5235
-10.8421
-11.0071
-11.0063
-10.8332
-10.4879
-0.240903
-0.725113
-1.21625
-1.71801
-2.23272
-2.76092
-3.30093
-3.84863
-4.39731
-4.93775
-5.45838
-5.94581
-6.38535
-6.76184
-7.06057
-7.26817
-7.37362
-7.36908
-7.2505
-7.01811
-0.162486
-0.488969
-0.819801
-1.15727
-1.50278
-1.85652
-2.21729
-2.58224
-2.94688
-3.30508
-3.64923
-3.97053
-4.25942
-4.50604
-4.70088
-4.83534
-4.90234
-4.89689
-4.81647
-4.6613
-0.108646
-0.326882
-0.547826
-0.772884
-1.00288
-1.23787
-1.47696
-1.71825
-1.95873
-2.19438
-2.42022
-2.63052
-2.81908
-2.97956
-3.10582
-3.19237
-3.23469
-3.22962
-3.1756
-3.07282
-0.0720276
-0.216667
-0.362978
-0.511818
-0.663667
-0.818504
-0.97571
-1.134
-1.2914
-1.44528
-1.5924
-1.72907
-1.85131
-1.95502
-2.03632
-2.09168
-2.11825
-2.11404
-2.07809
-2.01055
-0.0473548
-0.142423
-0.238515
-0.336149
-0.4356
-0.536821
-0.639384
-0.742438
-0.844694
-0.944441
-1.0396
-1.1278
-1.20649
-1.27308
-1.32508
-1.36027
-1.37686
-1.37359
-1.34987
-1.30583
-0.0308902
-0.0928889
-0.15551
-0.219063
-0.283703
-0.349381
-0.415805
-0.482415
-0.548375
-0.612585
-0.673715
-0.730254
-0.780583
-0.823058
-0.856114
-0.878353
-0.888647
-0.886219
-0.870706
-0.842195
-0.0200162
-0.0601806
-0.100721
-0.14182
-0.183564
-0.225909
-0.268659
-0.311449
-0.353741
-0.394831
-0.433873
-0.469911
-0.50192
-0.528868
-0.549769
-0.563751
-0.570108
-0.56836
-0.558283
-0.539942
-0.0129227
-0.0388477
-0.0649981
-0.0914819
-0.118345
-0.145554
-0.172976
-0.200374
-0.227404
-0.253617
-0.278477
-0.301379
-0.321679
-0.338728
-0.35191
-0.360677
-0.364593
-0.363359
-0.35684
-0.34508
-0.00837677
-0.0251782
-0.042115
-0.0592507
-0.0766095
-0.0941646
-0.111828
-0.129446
-0.146795
-0.16359
-0.179489
-0.194108
-0.207039
-0.217874
-0.226224
-0.231747
-0.234169
-0.233305
-0.229072
-0.2215
-0.00555603
-0.0166975
-0.0279217
-0.0392665
-0.0507445
-0.0623348
-0.0739777
-0.0855702
-0.0969661
-0.107978
-0.118383
-0.127933
-0.136363
-0.14341
-0.148823
-0.152383
-0.153915
-0.1533
-0.150488
-0.145499
-0.00393227
-0.011816
-0.0197538
-0.0277694
-0.0358695
-0.0440375
-0.0522299
-0.0603737
-0.068366
-0.076076
-0.0833487
-0.0900115
-0.0958821
-0.100778
-0.104528
-0.10698
-0.108016
-0.107554
-0.105562
-0.102053
-0.00319286
-0.00959332
-0.0160351
-0.022536
-0.0291001
-0.0357129
-0.0423386
-0.0489177
-0.0553671
-0.0615814
-0.0674364
-0.0727938
-0.0775081
-0.0814337
-0.0844338
-0.0863885
-0.0872029
-0.0868136
-0.0851941
-0.0823573
)
;

boundaryField
{
    topWall
    {
        type            calculated;
        value           nonuniform List<scalar> 
20
(
-0.00319286
-0.00959332
-0.0160351
-0.022536
-0.0291001
-0.0357129
-0.0423386
-0.0489177
-0.0553671
-0.0615814
-0.0674364
-0.0727938
-0.0775081
-0.0814337
-0.0844338
-0.0863885
-0.0872029
-0.0868136
-0.0851941
-0.0823573
)
;
    }
    bottomWall
    {
        type            calculated;
        value           nonuniform List<scalar> 
20
(
-18.5539
-57.3516
-101.402
-154.845
-222.885
-312.466
-433.263
-599.255
-831.312
-1161.68
-1642.19
-2360.25
-3472.5
-5283.05
-8447.63
-14582
-28326.2
-65150.6
-182664
-598762
)
;
    }
    sideWallL
    {
        type            symmetry;
    }
    sideWallR
    {
        type            calculated;
        value           nonuniform List<scalar> 
45
(
-924528
-386062
-206251
-128244
-86699.7
-61386.7
-44644.6
-32998.8
-24633.8
-18497.6
-13932.8
-10506
-7918.68
-5959.16
-4473.35
-3347.12
-2494.79
-1851.38
-1367.32
-1004.6
-734.057
-533.279
-385.09
-276.351
-197.046
-139.576
-98.2029
-68.6201
-47.6147
-32.8056
-22.4404
-15.2389
-10.2727
-6.87377
-4.56524
-3.00938
-1.96897
-1.27879
-0.82473
-0.528731
-0.337907
-0.21689
-0.142468
-0.0999248
-0.0806388
)
;
    }
    frontAndBack
    {
        type            empty;
    }
}


// ************************************************************************* //
