/*--------------------------------*- C++ -*----------------------------------*\
  =========                 |
  \\      /  F ield         | OpenFOAM: The Open Source CFD Toolbox
   \\    /   O peration     | Website:  https://openfoam.org
    \\  /    A nd           | Version:  7
     \\/     M anipulation  |
\*---------------------------------------------------------------------------*/
FoamFile
{
    version     2.0;
    format      ascii;
    class       volScalarField;
    location    "20";
    object      rhoc;
}
// * * * * * * * * * * * * * * * * * * * * * * * * * * * * * * * * * * * * * //

dimensions      [1 -3 0 0 0 0 0];

internalField   nonuniform List<scalar> 
900
(
2.71654e-12
2.71384e-12
2.70817e-12
2.69902e-12
2.68551e-12
2.66637e-12
2.63975e-12
2.6031e-12
2.55282e-12
2.48397e-12
2.38972e-12
2.2608e-12
2.08481e-12
1.84602e-12
1.52681e-12
1.11516e-12
6.3095e-13
1.9198e-13
8.94761e-15
2.03576e-19
2.17692e-14
2.16983e-14
2.15506e-14
2.13134e-14
2.09671e-14
2.04836e-14
1.98255e-14
1.8945e-14
1.77847e-14
1.62811e-14
1.43758e-14
1.20375e-14
9.30496e-15
6.35004e-15
3.53818e-15
1.39099e-15
2.87473e-16
1.6378e-17
5.50992e-20
2.47999e-25
2.05941e-16
2.04758e-16
2.02303e-16
1.98394e-16
1.92758e-16
1.85025e-16
1.74752e-16
1.61455e-16
1.44703e-16
1.24284e-16
1.00482e-16
7.44419e-17
4.84864e-17
2.59991e-17
1.03041e-17
2.51263e-18
2.73103e-19
7.42973e-21
1.86821e-23
1.40669e-27
2.44798e-18
2.4278e-18
2.38614e-18
2.32039e-18
2.22682e-18
2.10082e-18
1.93758e-18
1.73329e-18
1.48724e-18
1.20472e-18
9.00506e-19
6.00842e-19
3.40735e-19
1.5258e-19
4.82339e-20
9.06437e-21
7.7975e-22
2.10822e-23
1.16548e-25
1.57323e-28
3.86726e-20
3.82663e-20
3.74314e-20
3.61252e-20
3.42898e-20
3.18615e-20
2.87889e-20
2.50613e-20
2.07485e-20
1.60463e-20
1.13056e-20
7.00638e-21
3.63522e-21
1.47291e-21
4.22755e-22
7.52083e-23
6.98149e-24
2.80807e-25
4.56235e-27
5.30628e-29
8.51122e-22
8.40638e-22
8.1919e-22
7.85896e-22
7.39635e-22
6.79362e-22
6.04608e-22
5.16197e-22
4.17113e-22
3.13215e-22
2.13239e-22
1.27334e-22
6.38095e-23
2.53212e-23
7.38894e-24
1.4509e-24
1.74966e-25
1.2295e-26
5.61391e-28
2.88279e-29
2.70532e-23
2.66877e-23
2.59429e-23
2.47939e-23
2.32117e-23
2.11746e-23
1.86854e-23
1.57945e-23
1.26229e-23
9.37617e-24
6.33058e-24
3.77603e-24
1.91981e-24
7.96641e-25
2.56795e-25
6.12242e-26
1.04598e-26
1.31431e-27
1.43392e-28
1.98818e-29
1.27202e-24
1.25424e-24
1.2181e-24
1.16258e-24
1.08662e-24
9.89568e-25
8.72071e-25
7.36991e-25
5.90321e-25
4.41536e-25
3.02718e-25
1.86001e-25
9.97585e-26
4.53717e-26
1.70183e-26
5.16633e-27
1.27766e-27
2.73438e-28
5.87007e-29
1.56639e-29
8.95908e-26
8.83625e-26
8.58701e-26
8.20523e-26
7.68448e-26
7.02167e-26
6.22205e-26
5.30512e-26
4.30976e-26
3.29591e-26
2.33912e-26
1.51565e-26
8.81194e-27
4.52222e-27
2.02555e-27
7.92746e-28
2.77909e-28
9.27912e-29
3.25873e-29
1.33681e-29
9.48236e-27
9.3616e-27
9.1167e-27
8.74185e-27
8.23087e-27
7.58047e-27
6.79469e-27
5.89003e-27
4.90003e-27
3.87702e-27
2.88822e-27
2.00451e-27
1.28341e-27
7.52842e-28
4.04361e-28
2.00977e-28
9.49469e-29
4.45958e-29
2.20203e-29
1.20009e-29
1.50207e-27
1.48531e-27
1.4513e-27
1.39921e-27
1.3281e-27
1.2373e-27
1.12701e-27
9.98903e-28
8.56733e-28
7.06657e-28
5.56957e-28
4.16956e-28
2.95189e-28
1.97392e-28
1.25191e-28
7.61859e-29
4.53957e-29
2.72176e-29
1.69052e-29
1.11371e-29
3.51392e-28
3.48167e-28
3.41618e-28
3.31568e-28
3.17805e-28
3.00144e-28
2.78522e-28
2.53111e-28
2.24422e-28
1.93388e-28
1.61359e-28
1.2998e-28
1.00941e-28
7.56569e-29
5.49816e-29
3.90823e-29
2.75223e-29
1.94986e-29
1.41134e-29
1.05693e-29
1.17763e-28
1.16928e-28
1.1523e-28
1.12618e-28
1.09028e-28
1.04395e-28
9.8673e-29
9.18648e-29
8.40437e-29
7.53792e-29
6.61459e-29
5.67114e-29
4.74964e-29
3.89124e-29
3.12934e-29
2.48429e-29
1.96164e-29
1.55407e-29
1.24602e-29
1.01858e-29
5.36204e-29
5.33409e-29
5.2772e-29
5.18952e-29
5.06855e-29
4.91158e-29
4.71623e-29
4.48119e-29
4.20705e-29
3.89709e-29
3.55781e-29
3.19906e-29
2.83331e-29
2.47439e-29
2.13558e-29
1.8278e-29
1.55827e-29
1.33005e-29
1.14248e-29
9.92207e-30
3.09979e-29
3.08827e-29
3.0648e-29
3.02857e-29
2.97844e-29
2.91312e-29
2.83134e-29
2.73209e-29
2.61496e-29
2.48043e-29
2.33016e-29
2.16712e-29
1.99557e-29
1.82069e-29
1.64816e-29
1.4834e-29
1.33101e-29
1.19429e-29
1.07509e-29
9.73843e-30
2.12943e-29
2.12386e-29
2.11249e-29
2.09493e-29
2.0706e-29
2.03881e-29
1.99884e-29
1.95005e-29
1.892e-29
1.82458e-29
1.7482e-29
1.66382e-29
1.57303e-29
1.478e-29
1.38131e-29
1.28571e-29
1.19386e-29
1.10805e-29
1.03004e-29
9.60955e-30
1.64792e-29
1.64488e-29
1.63869e-29
1.62913e-29
1.61586e-29
1.5985e-29
1.57663e-29
1.54985e-29
1.51781e-29
1.48035e-29
1.4375e-29
1.38959e-29
1.33727e-29
1.28152e-29
1.22358e-29
1.16492e-29
1.10705e-29
1.05145e-29
9.99383e-30
9.51869e-30
1.38252e-29
1.38072e-29
1.37705e-29
1.37138e-29
1.36352e-29
1.35324e-29
1.34027e-29
1.32437e-29
1.30529e-29
1.2829e-29
1.25714e-29
1.22812e-29
1.19613e-29
1.16163e-29
1.12527e-29
1.08786e-29
1.05029e-29
1.01347e-29
9.7827e-30
9.4545e-30
1.22494e-29
1.22381e-29
1.22151e-29
1.21795e-29
1.21301e-29
1.20656e-29
1.19843e-29
1.18846e-29
1.17649e-29
1.16241e-29
1.14617e-29
1.12779e-29
1.1074e-29
1.08526e-29
1.06172e-29
1.03723e-29
1.01234e-29
9.8761e-30
9.63624e-30
9.40913e-30
1.12641e-29
1.12567e-29
1.12416e-29
1.12183e-29
1.11861e-29
1.1144e-29
1.10911e-29
1.10262e-29
1.09483e-29
1.08567e-29
1.07508e-29
1.06309e-29
1.04974e-29
1.03518e-29
1.01961e-29
1.0033e-29
9.8659e-30
9.69838e-30
9.53423e-30
9.37709e-30
1.06255e-29
1.06205e-29
1.06104e-29
1.05947e-29
1.05731e-29
1.0545e-29
1.05096e-29
1.04663e-29
1.04144e-29
1.03534e-29
1.0283e-29
1.02031e-29
1.01141e-29
1.00168e-29
9.91244e-30
9.80268e-30
9.68961e-30
9.57558e-30
9.46306e-30
9.35453e-30
1.02015e-29
1.01981e-29
1.01912e-29
1.01805e-29
1.01658e-29
1.01466e-29
1.01226e-29
1.00933e-29
1.00582e-29
1.0017e-29
9.96946e-30
9.9156e-30
9.85561e-30
9.78996e-30
9.71944e-30
9.64511e-30
9.5683e-30
9.49053e-30
9.41345e-30
9.33869e-30
9.91556e-30
9.91321e-30
9.90842e-30
9.90107e-30
9.89094e-30
9.87779e-30
9.86132e-30
9.84126e-30
9.81731e-30
9.78926e-30
9.75696e-30
9.7204e-30
9.67971e-30
9.63519e-30
9.58735e-30
9.53688e-30
9.48464e-30
9.43162e-30
9.37891e-30
9.32761e-30
9.72087e-30
9.71924e-30
9.71592e-30
9.71082e-30
9.70382e-30
9.69474e-30
9.68341e-30
9.66963e-30
9.65322e-30
9.63405e-30
9.61202e-30
9.58712e-30
9.55945e-30
9.52921e-30
9.49673e-30
9.46245e-30
9.42695e-30
9.39088e-30
9.35495e-30
9.31989e-30
9.58764e-30
9.5865e-30
9.5842e-30
9.58067e-30
9.57582e-30
9.56955e-30
9.56174e-30
9.55227e-30
9.54102e-30
9.52791e-30
9.51287e-30
9.49592e-30
9.47711e-30
9.45658e-30
9.43454e-30
9.41131e-30
9.38724e-30
9.36278e-30
9.33838e-30
9.31454e-30
9.4963e-30
9.49552e-30
9.49392e-30
9.49148e-30
9.48813e-30
9.48381e-30
9.47843e-30
9.47193e-30
9.46423e-30
9.45528e-30
9.44504e-30
9.43352e-30
9.42076e-30
9.40685e-30
9.39195e-30
9.37625e-30
9.35999e-30
9.34347e-30
9.32698e-30
9.31086e-30
9.43374e-30
9.4332e-30
9.43209e-30
9.43041e-30
9.42811e-30
9.42514e-30
9.42146e-30
9.41701e-30
9.41176e-30
9.40567e-30
9.39872e-30
9.39091e-30
9.38229e-30
9.37291e-30
9.36287e-30
9.3523e-30
9.34137e-30
9.33026e-30
9.31918e-30
9.30833e-30
9.391e-30
9.39062e-30
9.38987e-30
9.38871e-30
9.38713e-30
9.3851e-30
9.38259e-30
9.37957e-30
9.376e-30
9.37188e-30
9.36718e-30
9.36192e-30
9.35612e-30
9.34982e-30
9.34309e-30
9.33601e-30
9.3287e-30
9.32127e-30
9.31386e-30
9.30661e-30
9.36191e-30
9.36165e-30
9.36114e-30
9.36035e-30
9.35927e-30
9.3579e-30
9.35619e-30
9.35415e-30
9.35174e-30
9.34896e-30
9.34581e-30
9.34228e-30
9.3384e-30
9.33419e-30
9.3297e-30
9.32499e-30
9.32012e-30
9.31518e-30
9.31026e-30
9.30544e-30
9.34221e-30
9.34204e-30
9.34169e-30
9.34115e-30
9.34043e-30
9.3395e-30
9.33835e-30
9.33697e-30
9.33536e-30
9.3335e-30
9.33139e-30
9.32904e-30
9.32646e-30
9.32367e-30
9.32069e-30
9.31757e-30
9.31435e-30
9.31109e-30
9.30784e-30
9.30465e-30
9.32894e-30
9.32883e-30
9.32859e-30
9.32823e-30
9.32775e-30
9.32712e-30
9.32636e-30
9.32544e-30
9.32436e-30
9.32313e-30
9.32173e-30
9.32017e-30
9.31847e-30
9.31662e-30
9.31466e-30
9.31261e-30
9.3105e-30
9.30835e-30
9.30622e-30
9.30413e-30
9.32007e-30
9.31999e-30
9.31983e-30
9.31959e-30
9.31927e-30
9.31885e-30
9.31835e-30
9.31774e-30
9.31703e-30
9.31621e-30
9.31529e-30
9.31427e-30
9.31314e-30
9.31194e-30
9.31065e-30
9.30931e-30
9.30793e-30
9.30653e-30
9.30514e-30
9.30378e-30
9.31417e-30
9.31411e-30
9.31401e-30
9.31385e-30
9.31364e-30
9.31336e-30
9.31303e-30
9.31263e-30
9.31216e-30
9.31163e-30
9.31102e-30
9.31036e-30
9.30963e-30
9.30884e-30
9.30801e-30
9.30714e-30
9.30624e-30
9.30533e-30
9.30443e-30
9.30355e-30
9.31027e-30
9.31024e-30
9.31017e-30
9.31006e-30
9.30992e-30
9.30974e-30
9.30953e-30
9.30926e-30
9.30896e-30
9.30861e-30
9.30822e-30
9.30779e-30
9.30731e-30
9.30681e-30
9.30627e-30
9.30571e-30
9.30513e-30
9.30455e-30
9.30397e-30
9.3034e-30
9.30772e-30
9.30769e-30
9.30765e-30
9.30758e-30
9.30749e-30
9.30737e-30
9.30723e-30
9.30706e-30
9.30687e-30
9.30664e-30
9.30639e-30
9.30611e-30
9.30581e-30
9.30548e-30
9.30514e-30
9.30478e-30
9.30441e-30
9.30403e-30
9.30366e-30
9.3033e-30
9.30605e-30
9.30604e-30
9.30601e-30
9.30597e-30
9.30591e-30
9.30583e-30
9.30574e-30
9.30563e-30
9.30551e-30
9.30536e-30
9.3052e-30
9.30502e-30
9.30483e-30
9.30462e-30
9.3044e-30
9.30417e-30
9.30394e-30
9.3037e-30
9.30347e-30
9.30324e-30
9.30498e-30
9.30497e-30
9.30495e-30
9.30492e-30
9.30489e-30
9.30484e-30
9.30478e-30
9.30471e-30
9.30463e-30
9.30454e-30
9.30444e-30
9.30432e-30
9.3042e-30
9.30407e-30
9.30393e-30
9.30379e-30
9.30364e-30
9.30349e-30
9.30334e-30
9.3032e-30
9.30429e-30
9.30429e-30
9.30427e-30
9.30426e-30
9.30423e-30
9.3042e-30
9.30417e-30
9.30412e-30
9.30407e-30
9.30401e-30
9.30395e-30
9.30388e-30
9.3038e-30
9.30372e-30
9.30363e-30
9.30354e-30
9.30345e-30
9.30335e-30
9.30326e-30
9.30317e-30
9.30385e-30
9.30385e-30
9.30384e-30
9.30383e-30
9.30382e-30
9.3038e-30
9.30377e-30
9.30375e-30
9.30371e-30
9.30368e-30
9.30364e-30
9.30359e-30
9.30355e-30
9.30349e-30
9.30344e-30
9.30338e-30
9.30333e-30
9.30327e-30
9.30321e-30
9.30315e-30
9.30358e-30
9.30358e-30
9.30357e-30
9.30356e-30
9.30355e-30
9.30354e-30
9.30353e-30
9.30351e-30
9.30349e-30
9.30347e-30
9.30344e-30
9.30342e-30
9.30339e-30
9.30335e-30
9.30332e-30
9.30329e-30
9.30325e-30
9.30321e-30
9.30318e-30
9.30314e-30
9.30341e-30
9.3034e-30
9.3034e-30
9.3034e-30
9.30339e-30
9.30338e-30
9.30337e-30
9.30336e-30
9.30335e-30
9.30334e-30
9.30332e-30
9.3033e-30
9.30329e-30
9.30327e-30
9.30325e-30
9.30322e-30
9.3032e-30
9.30318e-30
9.30316e-30
9.30314e-30
9.3033e-30
9.3033e-30
9.3033e-30
9.30329e-30
9.30329e-30
9.30329e-30
9.30328e-30
9.30327e-30
9.30327e-30
9.30326e-30
9.30325e-30
9.30324e-30
9.30323e-30
9.30321e-30
9.3032e-30
9.30319e-30
9.30317e-30
9.30316e-30
9.30315e-30
9.30313e-30
9.30324e-30
9.30324e-30
9.30323e-30
9.30323e-30
9.30323e-30
9.30323e-30
9.30322e-30
9.30322e-30
9.30321e-30
9.30321e-30
9.3032e-30
9.3032e-30
9.30319e-30
9.30318e-30
9.30317e-30
9.30316e-30
9.30316e-30
9.30315e-30
9.30314e-30
9.30313e-30
9.3032e-30
9.3032e-30
9.3032e-30
9.3032e-30
9.3032e-30
9.30319e-30
9.30319e-30
9.30319e-30
9.30319e-30
9.30318e-30
9.30318e-30
9.30317e-30
9.30317e-30
9.30316e-30
9.30316e-30
9.30315e-30
9.30315e-30
9.30314e-30
9.30313e-30
9.30313e-30
9.30318e-30
9.30318e-30
9.30318e-30
9.30318e-30
9.30318e-30
9.30318e-30
9.30318e-30
9.30318e-30
9.30317e-30
9.30317e-30
9.30317e-30
9.30316e-30
9.30316e-30
9.30316e-30
9.30315e-30
9.30315e-30
9.30314e-30
9.30314e-30
9.30313e-30
9.30313e-30
)
;

boundaryField
{
    topWall
    {
        type            zeroGradient;
    }
    bottomWall
    {
        type            zeroGradient;
    }
    sideWallL
    {
        type            symmetry;
    }
    sideWallR
    {
        type            zeroGradient;
    }
    frontAndBack
    {
        type            empty;
    }
}


// ************************************************************************* //
