/*--------------------------------*- C++ -*----------------------------------*\
  =========                 |
  \\      /  F ield         | OpenFOAM: The Open Source CFD Toolbox
   \\    /   O peration     | Website:  https://openfoam.org
    \\  /    A nd           | Version:  7
     \\/     M anipulation  |
\*---------------------------------------------------------------------------*/
FoamFile
{
    version     2.0;
    format      ascii;
    class       volScalarField;
    location    "20";
    object      rhog;
}
// * * * * * * * * * * * * * * * * * * * * * * * * * * * * * * * * * * * * * //

dimensions      [1 -3 0 0 0 0 0];

internalField   nonuniform List<scalar> 
900
(
1.58789e-05
1.58695e-05
1.585e-05
1.58184e-05
1.57716e-05
1.57053e-05
1.56129e-05
1.5485e-05
1.53087e-05
1.5065e-05
1.47273e-05
1.42567e-05
1.35964e-05
1.26628e-05
1.13331e-05
9.43311e-06
6.76406e-06
3.37511e-06
5.60583e-07
1.01983e-09
9.60245e-07
9.58389e-07
9.54511e-07
9.48267e-07
9.39106e-07
9.26224e-07
9.08502e-07
8.84434e-07
8.52035e-07
8.08775e-07
7.51568e-07
6.76959e-07
5.81763e-07
4.64647e-07
3.29401e-07
1.90191e-07
7.51632e-08
1.38599e-08
4.73912e-10
2.94441e-13
6.30482e-08
6.28319e-08
6.23814e-08
6.16601e-08
6.06104e-08
5.91512e-08
5.71756e-08
5.45494e-08
5.11151e-08
4.67055e-08
4.11767e-08
3.44746e-08
2.67468e-08
1.84959e-08
1.06938e-08
4.6352e-09
1.24232e-09
1.4545e-10
4.04346e-12
1.2566e-14
4.67064e-09
4.64752e-09
4.59954e-09
4.52318e-09
4.41307e-09
4.26194e-09
4.06078e-09
3.79939e-09
3.4677e-09
3.05842e-09
2.57153e-09
2.02095e-09
1.44183e-09
8.93734e-10
4.50142e-10
1.66154e-10
3.83756e-11
4.40397e-12
1.90612e-13
3.2233e-15
4.04389e-10
4.01823e-10
3.96517e-10
3.88126e-10
3.76137e-10
3.59887e-10
3.38619e-10
3.11578e-10
2.78218e-10
2.38511e-10
1.9339e-10
1.45228e-10
9.80625e-11
5.70999e-11
2.70338e-11
9.59599e-12
2.29711e-12
3.29401e-13
2.66041e-14
1.62526e-15
4.21653e-11
4.18498e-11
4.11998e-11
4.0178e-11
3.87303e-11
3.6791e-11
3.42904e-11
3.11712e-11
2.74132e-11
2.30686e-11
1.83021e-11
1.34195e-11
8.85425e-12
5.07538e-12
2.41579e-12
9.0385e-13
2.50742e-13
4.9581e-14
7.32474e-15
1.1025e-15
5.41863e-12
5.3739e-12
5.28204e-12
5.13837e-12
4.93634e-12
4.6683e-12
4.32692e-12
3.90743e-12
3.41097e-12
2.84868e-12
2.24566e-12
1.64235e-12
1.09028e-12
6.39716e-13
3.21699e-13
1.34346e-13
4.55297e-14
1.26175e-14
3.11932e-15
8.69203e-16
8.7163e-13
8.64133e-13
8.48774e-13
8.24852e-13
7.9141e-13
7.47375e-13
6.91794e-13
6.24206e-13
5.45127e-13
4.56612e-13
3.62705e-13
2.69466e-13
1.8421e-13
1.13784e-13
6.23648e-14
2.99186e-14
1.25602e-14
4.75556e-15
1.76794e-15
7.45753e-16
1.76915e-13
1.7541e-13
1.72331e-13
1.67552e-13
1.60899e-13
1.52183e-13
1.41245e-13
1.28023e-13
1.12639e-13
9.54863e-14
7.73026e-14
5.91576e-14
4.2323e-14
2.80019e-14
1.69916e-14
9.44063e-15
4.85988e-15
2.39932e-15
1.20983e-15
6.73384e-16
4.53842e-14
4.5021e-14
4.42792e-14
4.313e-14
4.15344e-14
3.94504e-14
3.68425e-14
3.3697e-14
3.0039e-14
2.59517e-14
2.15895e-14
1.71765e-14
1.29828e-14
9.27473e-15
6.25181e-15
3.99546e-15
2.45758e-15
1.49625e-15
9.37435e-16
6.2809e-16
1.46665e-14
1.45618e-14
1.43481e-14
1.40173e-14
1.35588e-14
1.29605e-14
1.22123e-14
1.13092e-14
1.02558e-14
9.07126e-15
7.79256e-15
6.47481e-15
5.18662e-15
3.99964e-15
2.97439e-15
2.14724e-15
1.52401e-15
1.0835e-15
7.88483e-16
5.9848e-16
5.9227e-15
5.88702e-15
5.81426e-15
5.70173e-15
5.54576e-15
5.34228e-15
5.08752e-15
4.7792e-15
4.41775e-15
4.00779e-15
3.55923e-15
3.08763e-15
2.61324e-15
2.15863e-15
1.74498e-15
1.38826e-15
1.09654e-15
8.69541e-16
7.0037e-16
5.78543e-16
2.94318e-15
2.92907e-15
2.90029e-15
2.85578e-15
2.7941e-15
2.71355e-15
2.61251e-15
2.4898e-15
2.3451e-15
2.17947e-15
1.99577e-15
1.7989e-15
1.59564e-15
1.39403e-15
1.20235e-15
1.02783e-15
8.75628e-16
7.48173e-16
6.45297e-16
5.64844e-16
1.75472e-15
1.74837e-15
1.7354e-15
1.71535e-15
1.68755e-15
1.65121e-15
1.60553e-15
1.54985e-15
1.48382e-15
1.4076e-15
1.32202e-15
1.22877e-15
1.13033e-15
1.02989e-15
9.30968e-16
8.37004e-16
7.50914e-16
6.74744e-16
6.09516e-16
5.55301e-16
1.21336e-15
1.21017e-15
1.20365e-15
1.19358e-15
1.1796e-15
1.16131e-15
1.13829e-15
1.11014e-15
1.07659e-15
1.03759e-15
9.93363e-16
9.44513e-16
8.92033e-16
8.37278e-16
7.81865e-16
7.2751e-16
6.75841e-16
6.28222e-16
5.85627e-16
5.48593e-16
9.3861e-16
9.36855e-16
9.33276e-16
9.27742e-16
9.20065e-16
9.10017e-16
8.97351e-16
8.8183e-16
8.63268e-16
8.41569e-16
8.16777e-16
7.8911e-16
7.58989e-16
7.27034e-16
6.94034e-16
6.60885e-16
6.2851e-16
5.97766e-16
5.69372e-16
5.4385e-16
7.86749e-16
7.85714e-16
7.83606e-16
7.80347e-16
7.75826e-16
7.6991e-16
7.62448e-16
7.53294e-16
7.42321e-16
7.29447e-16
7.1466e-16
6.98038e-16
6.79768e-16
6.60151e-16
6.39595e-16
6.18589e-16
5.97666e-16
5.77363e-16
5.58167e-16
5.40487e-16
6.97124e-16
6.9648e-16
6.95169e-16
6.93144e-16
6.90337e-16
6.86665e-16
6.82036e-16
6.76354e-16
6.69536e-16
6.61521e-16
6.52284e-16
6.41852e-16
6.30311e-16
6.17817e-16
6.04591e-16
5.9091e-16
5.77093e-16
5.63475e-16
5.50379e-16
5.38099e-16
6.41559e-16
6.41142e-16
6.40294e-16
6.38985e-16
6.37172e-16
6.34802e-16
6.31817e-16
6.28156e-16
6.23762e-16
6.18593e-16
6.12627e-16
6.0587e-16
5.98365e-16
5.90196e-16
5.8149e-16
5.7241e-16
5.6315e-16
5.53921e-16
5.44939e-16
5.36405e-16
6.05842e-16
6.05564e-16
6.04999e-16
6.04128e-16
6.02923e-16
6.01351e-16
5.99373e-16
5.96949e-16
5.94043e-16
5.90626e-16
5.8668e-16
5.82205e-16
5.77225e-16
5.71788e-16
5.65967e-16
5.59864e-16
5.53598e-16
5.47307e-16
5.4113e-16
5.35205e-16
5.82279e-16
5.82091e-16
5.81707e-16
5.81116e-16
5.80299e-16
5.79236e-16
5.779e-16
5.76266e-16
5.7431e-16
5.72012e-16
5.6936e-16
5.66353e-16
5.63004e-16
5.59341e-16
5.55411e-16
5.51276e-16
5.47014e-16
5.42711e-16
5.38461e-16
5.34357e-16
5.66454e-16
5.66324e-16
5.6606e-16
5.65654e-16
5.65093e-16
5.64365e-16
5.63452e-16
5.62338e-16
5.61006e-16
5.59444e-16
5.57644e-16
5.55604e-16
5.53333e-16
5.50848e-16
5.4818e-16
5.45367e-16
5.42459e-16
5.39514e-16
5.36594e-16
5.33761e-16
5.55698e-16
5.55608e-16
5.55425e-16
5.55144e-16
5.54757e-16
5.54254e-16
5.53626e-16
5.52861e-16
5.51948e-16
5.5088e-16
5.49651e-16
5.48261e-16
5.46714e-16
5.45023e-16
5.43206e-16
5.41289e-16
5.39306e-16
5.37293e-16
5.35291e-16
5.33342e-16
5.48336e-16
5.48274e-16
5.48146e-16
5.47951e-16
5.47683e-16
5.47335e-16
5.46901e-16
5.46374e-16
5.45747e-16
5.45015e-16
5.44174e-16
5.43225e-16
5.4217e-16
5.41018e-16
5.39781e-16
5.38476e-16
5.37124e-16
5.35752e-16
5.34384e-16
5.3305e-16
5.43279e-16
5.43236e-16
5.43147e-16
5.43011e-16
5.42825e-16
5.42585e-16
5.42285e-16
5.41922e-16
5.41492e-16
5.4099e-16
5.40415e-16
5.39767e-16
5.39048e-16
5.38264e-16
5.37423e-16
5.36537e-16
5.35619e-16
5.34686e-16
5.33756e-16
5.32847e-16
5.39803e-16
5.39773e-16
5.39711e-16
5.39617e-16
5.39489e-16
5.39323e-16
5.39116e-16
5.38867e-16
5.38572e-16
5.38228e-16
5.37836e-16
5.37395e-16
5.36906e-16
5.36375e-16
5.35805e-16
5.35205e-16
5.34584e-16
5.33953e-16
5.33323e-16
5.32707e-16
5.37417e-16
5.37396e-16
5.37353e-16
5.37289e-16
5.372e-16
5.37086e-16
5.36944e-16
5.36773e-16
5.36572e-16
5.36338e-16
5.36071e-16
5.35772e-16
5.35441e-16
5.35082e-16
5.34698e-16
5.34293e-16
5.33875e-16
5.3345e-16
5.33026e-16
5.32611e-16
5.35783e-16
5.35769e-16
5.3574e-16
5.35695e-16
5.35635e-16
5.35556e-16
5.3546e-16
5.35343e-16
5.35206e-16
5.35048e-16
5.34867e-16
5.34665e-16
5.34443e-16
5.34201e-16
5.33943e-16
5.33672e-16
5.33392e-16
5.33107e-16
5.32823e-16
5.32545e-16
5.3467e-16
5.3466e-16
5.3464e-16
5.3461e-16
5.34569e-16
5.34515e-16
5.3445e-16
5.34371e-16
5.34279e-16
5.34172e-16
5.3405e-16
5.33915e-16
5.33766e-16
5.33604e-16
5.33432e-16
5.33251e-16
5.33064e-16
5.32875e-16
5.32686e-16
5.32501e-16
5.33915e-16
5.33908e-16
5.33895e-16
5.33874e-16
5.33846e-16
5.33811e-16
5.33766e-16
5.33713e-16
5.33651e-16
5.3358e-16
5.33498e-16
5.33408e-16
5.33309e-16
5.33201e-16
5.33087e-16
5.32967e-16
5.32843e-16
5.32718e-16
5.32593e-16
5.32471e-16
5.33406e-16
5.33402e-16
5.33393e-16
5.33379e-16
5.3336e-16
5.33336e-16
5.33306e-16
5.33271e-16
5.33229e-16
5.33182e-16
5.33128e-16
5.33068e-16
5.33002e-16
5.32931e-16
5.32856e-16
5.32777e-16
5.32696e-16
5.32613e-16
5.32531e-16
5.32451e-16
5.33065e-16
5.33062e-16
5.33056e-16
5.33047e-16
5.33034e-16
5.33018e-16
5.32999e-16
5.32975e-16
5.32948e-16
5.32916e-16
5.32881e-16
5.32841e-16
5.32798e-16
5.32751e-16
5.32702e-16
5.3265e-16
5.32597e-16
5.32543e-16
5.3249e-16
5.32437e-16
5.32838e-16
5.32836e-16
5.32832e-16
5.32826e-16
5.32818e-16
5.32807e-16
5.32794e-16
5.32779e-16
5.32761e-16
5.3274e-16
5.32717e-16
5.32691e-16
5.32663e-16
5.32632e-16
5.326e-16
5.32567e-16
5.32532e-16
5.32497e-16
5.32462e-16
5.32428e-16
5.32688e-16
5.32687e-16
5.32684e-16
5.3268e-16
5.32675e-16
5.32668e-16
5.32659e-16
5.32649e-16
5.32637e-16
5.32624e-16
5.32609e-16
5.32592e-16
5.32574e-16
5.32554e-16
5.32533e-16
5.32512e-16
5.32489e-16
5.32467e-16
5.32445e-16
5.32423e-16
5.3259e-16
5.32589e-16
5.32587e-16
5.32584e-16
5.32581e-16
5.32576e-16
5.32571e-16
5.32564e-16
5.32557e-16
5.32548e-16
5.32538e-16
5.32527e-16
5.32516e-16
5.32503e-16
5.3249e-16
5.32476e-16
5.32462e-16
5.32447e-16
5.32433e-16
5.32419e-16
5.32525e-16
5.32525e-16
5.32524e-16
5.32522e-16
5.3252e-16
5.32517e-16
5.32513e-16
5.32509e-16
5.32504e-16
5.32499e-16
5.32492e-16
5.32486e-16
5.32478e-16
5.3247e-16
5.32461e-16
5.32453e-16
5.32444e-16
5.32434e-16
5.32425e-16
5.32416e-16
5.32484e-16
5.32484e-16
5.32483e-16
5.32482e-16
5.3248e-16
5.32478e-16
5.32476e-16
5.32474e-16
5.3247e-16
5.32467e-16
5.32463e-16
5.32458e-16
5.32454e-16
5.32449e-16
5.32443e-16
5.32438e-16
5.32432e-16
5.32426e-16
5.3242e-16
5.32415e-16
5.32457e-16
5.32457e-16
5.32457e-16
5.32456e-16
5.32455e-16
5.32454e-16
5.32452e-16
5.32451e-16
5.32449e-16
5.32446e-16
5.32444e-16
5.32441e-16
5.32438e-16
5.32435e-16
5.32432e-16
5.32428e-16
5.32425e-16
5.32421e-16
5.32417e-16
5.32414e-16
5.3244e-16
5.3244e-16
5.3244e-16
5.3244e-16
5.32439e-16
5.32438e-16
5.32437e-16
5.32436e-16
5.32435e-16
5.32434e-16
5.32432e-16
5.3243e-16
5.32428e-16
5.32426e-16
5.32424e-16
5.32422e-16
5.3242e-16
5.32418e-16
5.32415e-16
5.32413e-16
5.3243e-16
5.3243e-16
5.32429e-16
5.32429e-16
5.32429e-16
5.32428e-16
5.32428e-16
5.32427e-16
5.32426e-16
5.32425e-16
5.32424e-16
5.32423e-16
5.32422e-16
5.32421e-16
5.3242e-16
5.32418e-16
5.32417e-16
5.32416e-16
5.32414e-16
5.32413e-16
5.32423e-16
5.32423e-16
5.32423e-16
5.32423e-16
5.32422e-16
5.32422e-16
5.32422e-16
5.32421e-16
5.32421e-16
5.3242e-16
5.3242e-16
5.32419e-16
5.32418e-16
5.32418e-16
5.32417e-16
5.32416e-16
5.32415e-16
5.32414e-16
5.32413e-16
5.32413e-16
5.32419e-16
5.32419e-16
5.32419e-16
5.32419e-16
5.32419e-16
5.32418e-16
5.32418e-16
5.32418e-16
5.32418e-16
5.32417e-16
5.32417e-16
5.32416e-16
5.32416e-16
5.32416e-16
5.32415e-16
5.32414e-16
5.32414e-16
5.32413e-16
5.32413e-16
5.32412e-16
5.32416e-16
5.32416e-16
5.32416e-16
5.32416e-16
5.32416e-16
5.32416e-16
5.32416e-16
5.32416e-16
5.32416e-16
5.32415e-16
5.32415e-16
5.32415e-16
5.32415e-16
5.32414e-16
5.32414e-16
5.32414e-16
5.32413e-16
5.32413e-16
5.32413e-16
5.32412e-16
5.32415e-16
5.32415e-16
5.32415e-16
5.32415e-16
5.32415e-16
5.32415e-16
5.32415e-16
5.32415e-16
5.32414e-16
5.32414e-16
5.32414e-16
5.32414e-16
5.32414e-16
5.32414e-16
5.32413e-16
5.32413e-16
5.32413e-16
5.32413e-16
5.32412e-16
5.32412e-16
5.32414e-16
5.32414e-16
5.32414e-16
5.32414e-16
5.32414e-16
5.32414e-16
5.32414e-16
5.32414e-16
5.32414e-16
5.32414e-16
5.32414e-16
5.32414e-16
5.32413e-16
5.32413e-16
5.32413e-16
5.32413e-16
5.32413e-16
5.32413e-16
5.32412e-16
5.32412e-16
)
;

boundaryField
{
    topWall
    {
        type            calculated;
        value           uniform 0;
    }
    bottomWall
    {
        type            zeroGradient;
    }
    sideWallL
    {
        type            symmetry;
    }
    sideWallR
    {
        type            calculated;
        value           uniform 0;
    }
    frontAndBack
    {
        type            empty;
    }
}


// ************************************************************************* //
