/*--------------------------------*- C++ -*----------------------------------*\
  =========                 |
  \\      /  F ield         | OpenFOAM: The Open Source CFD Toolbox
   \\    /   O peration     | Website:  https://openfoam.org
    \\  /    A nd           | Version:  7
     \\/     M anipulation  |
\*---------------------------------------------------------------------------*/
FoamFile
{
    version     2.0;
    format      ascii;
    class       volScalarField;
    location    "20";
    object      rhois;
}
// * * * * * * * * * * * * * * * * * * * * * * * * * * * * * * * * * * * * * //

dimensions      [1 -3 0 0 0 0 0];

internalField   nonuniform List<scalar> 
900
(
0.000364736
0.000364585
0.000364269
0.000363756
0.000362996
0.000361915
0.000360402
0.000358301
0.000355388
0.000351338
0.000345681
0.000337718
0.000326398
0.000310094
0.000286234
0.000250676
0.00019704
0.000119072
3.24296e-05
3.4081e-07
4.66225e-05
4.6559e-05
4.64262e-05
4.62117e-05
4.58958e-05
4.54492e-05
4.48306e-05
4.39831e-05
4.28292e-05
4.12652e-05
3.91554e-05
3.63282e-05
3.25819e-05
2.77171e-05
2.1633e-05
1.45569e-05
7.44859e-06
2.1992e-06
1.93578e-07
1.01159e-09
6.35692e-06
6.34157e-06
6.30953e-06
6.25803e-06
6.18265e-06
6.07704e-06
5.93254e-06
5.7378e-06
5.47845e-06
5.13726e-06
4.69523e-06
4.13484e-06
3.44722e-06
2.64552e-06
1.78477e-06
9.78633e-07
3.79917e-07
8.15542e-08
6.33123e-09
1.12373e-10
9.51203e-07
9.47895e-07
9.41012e-07
9.30001e-07
9.14001e-07
8.91809e-07
8.61851e-07
8.22188e-07
7.70591e-07
7.04775e-07
6.22908e-07
5.24552e-07
4.12143e-07
2.92778e-07
1.79246e-07
8.78714e-08
3.08485e-08
6.61069e-09
7.243e-10
4.42627e-11
1.60324e-07
1.59612e-07
1.58134e-07
1.55782e-07
1.52389e-07
1.47732e-07
1.41529e-07
1.33459e-07
1.23193e-07
1.10467e-07
9.5201e-08
7.76792e-08
5.87567e-08
3.99933e-08
2.34975e-08
1.12582e-08
4.09018e-09
1.04376e-09
1.82987e-10
2.77364e-11
3.11245e-08
3.09623e-08
3.06267e-08
3.00953e-08
2.93342e-08
2.82993e-08
2.69379e-08
2.51942e-08
2.30187e-08
2.03853e-08
1.73158e-08
1.39099e-08
1.03703e-08
7.00049e-09
4.14682e-09
2.07677e-09
8.47047e-10
2.76107e-10
7.55201e-11
2.12538e-11
7.08269e-09
7.04227e-09
6.95886e-09
6.82736e-09
6.64025e-09
6.38794e-09
6.0595e-09
5.64417e-09
5.13386e-09
4.52697e-09
3.83346e-09
3.07997e-09
2.31263e-09
1.59348e-09
9.87062e-10
5.38843e-10
2.56215e-10
1.07463e-10
4.24112e-11
1.80317e-11
1.91281e-09
1.90156e-09
1.87839e-09
1.84201e-09
1.79051e-09
1.72153e-09
1.63248e-09
1.52094e-09
1.38536e-09
1.22594e-09
1.04578e-09
8.51868e-10
6.55385e-10
4.70588e-10
3.11838e-10
1.8935e-10
1.05704e-10
5.55464e-11
2.89776e-11
1.62046e-11
6.17718e-10
6.1418e-10
6.06911e-10
5.95528e-10
5.79483e-10
5.58102e-10
5.30661e-10
4.96509e-10
4.55258e-10
4.07031e-10
3.52739e-10
2.94314e-10
2.34751e-10
1.77816e-10
1.27341e-10
8.6258e-11
5.57827e-11
3.52071e-11
2.24635e-11
1.50822e-11
2.39218e-10
2.37959e-10
2.35374e-10
2.31336e-10
2.25662e-10
2.18127e-10
2.08493e-10
1.96547e-10
1.8216e-10
1.6536e-10
1.46419e-10
1.25911e-10
1.04732e-10
8.40208e-11
6.49777e-11
4.86145e-11
3.55183e-11
2.57472e-11
1.89065e-11
1.43564e-11
1.10794e-10
1.10288e-10
1.09251e-10
1.07633e-10
1.05364e-10
1.02359e-10
9.85241e-11
9.37768e-11
8.80612e-11
8.13762e-11
7.38021e-11
6.55236e-11
5.68365e-11
4.8129e-11
3.98314e-11
3.23409e-11
2.59457e-11
2.07757e-11
1.68003e-11
1.38707e-11
6.07375e-11
6.05101e-11
6.00443e-11
5.93187e-11
5.83027e-11
5.69587e-11
5.52458e-11
5.31257e-11
5.05704e-11
4.7572e-11
4.41532e-11
4.03769e-11
3.63496e-11
3.2218e-11
2.81533e-11
2.43277e-11
2.08863e-11
1.79251e-11
1.54811e-11
1.35381e-11
3.86559e-11
3.8543e-11
3.83119e-11
3.79521e-11
3.74489e-11
3.67839e-11
3.59369e-11
3.48882e-11
3.3622e-11
3.21309e-11
3.04198e-11
2.85109e-11
2.64454e-11
2.42835e-11
2.20996e-11
1.9974e-11
1.79824e-11
1.61854e-11
1.46218e-11
1.33066e-11
2.78231e-11
2.7762e-11
2.7637e-11
2.74426e-11
2.71711e-11
2.68124e-11
2.63558e-11
2.57903e-11
2.51064e-11
2.42985e-11
2.33663e-11
2.23175e-11
2.1169e-11
1.99474e-11
1.86873e-11
1.74287e-11
1.62125e-11
1.50754e-11
1.40463e-11
1.31439e-11
2.20198e-11
2.19843e-11
2.19117e-11
2.1799e-11
2.16416e-11
2.1434e-11
2.11698e-11
2.08426e-11
2.04466e-11
1.99776e-11
1.94341e-11
1.88188e-11
1.81389e-11
1.74067e-11
1.66394e-11
1.58582e-11
1.50856e-11
1.43441e-11
1.36534e-11
1.30288e-11
1.86834e-11
1.86615e-11
1.8617e-11
1.85478e-11
1.84512e-11
1.83241e-11
1.81624e-11
1.79623e-11
1.772e-11
1.74327e-11
1.70989e-11
1.67193e-11
1.62971e-11
1.58383e-11
1.53522e-11
1.48502e-11
1.43454e-11
1.38515e-11
1.33817e-11
1.29469e-11
1.66565e-11
1.66425e-11
1.66138e-11
1.65694e-11
1.65076e-11
1.64262e-11
1.6323e-11
1.61952e-11
1.60407e-11
1.58574e-11
1.56441e-11
1.54009e-11
1.51293e-11
1.48325e-11
1.45154e-11
1.41847e-11
1.38482e-11
1.35145e-11
1.31921e-11
1.28886e-11
1.53723e-11
1.5363e-11
1.5344e-11
1.53145e-11
1.52736e-11
1.52198e-11
1.51517e-11
1.50676e-11
1.49659e-11
1.48454e-11
1.47051e-11
1.4545e-11
1.43658e-11
1.41692e-11
1.39581e-11
1.37365e-11
1.35092e-11
1.32815e-11
1.3059e-11
1.28472e-11
1.45329e-11
1.45265e-11
1.45136e-11
1.44936e-11
1.44659e-11
1.44295e-11
1.43835e-11
1.43268e-11
1.42584e-11
1.41775e-11
1.40834e-11
1.39759e-11
1.38555e-11
1.37232e-11
1.35808e-11
1.34305e-11
1.32756e-11
1.31193e-11
1.29655e-11
1.28177e-11
1.39717e-11
1.39673e-11
1.39583e-11
1.39445e-11
1.39254e-11
1.39004e-11
1.38689e-11
1.38301e-11
1.37834e-11
1.37282e-11
1.36642e-11
1.35912e-11
1.35093e-11
1.34194e-11
1.33223e-11
1.32198e-11
1.31136e-11
1.30061e-11
1.28997e-11
1.27967e-11
1.35905e-11
1.35874e-11
1.35812e-11
1.35715e-11
1.35582e-11
1.35409e-11
1.3519e-11
1.34922e-11
1.346e-11
1.34221e-11
1.33782e-11
1.33281e-11
1.32721e-11
1.32106e-11
1.31442e-11
1.30739e-11
1.3001e-11
1.2927e-11
1.28534e-11
1.27819e-11
1.33289e-11
1.33267e-11
1.33223e-11
1.33156e-11
1.33063e-11
1.32941e-11
1.32789e-11
1.32603e-11
1.3238e-11
1.32118e-11
1.31815e-11
1.31471e-11
1.31086e-11
1.30664e-11
1.30208e-11
1.29726e-11
1.29226e-11
1.28717e-11
1.28209e-11
1.27715e-11
1.31482e-11
1.31467e-11
1.31436e-11
1.31389e-11
1.31323e-11
1.31239e-11
1.31132e-11
1.31003e-11
1.30848e-11
1.30667e-11
1.30458e-11
1.30221e-11
1.29956e-11
1.29666e-11
1.29354e-11
1.29023e-11
1.2868e-11
1.28331e-11
1.27982e-11
1.27642e-11
1.30231e-11
1.3022e-11
1.30199e-11
1.30166e-11
1.3012e-11
1.3006e-11
1.29986e-11
1.29896e-11
1.29789e-11
1.29664e-11
1.29519e-11
1.29356e-11
1.29175e-11
1.28976e-11
1.28762e-11
1.28536e-11
1.28301e-11
1.28063e-11
1.27824e-11
1.27591e-11
1.29364e-11
1.29357e-11
1.29342e-11
1.29319e-11
1.29287e-11
1.29245e-11
1.29194e-11
1.29131e-11
1.29057e-11
1.2897e-11
1.28871e-11
1.28759e-11
1.28635e-11
1.28499e-11
1.28353e-11
1.28199e-11
1.28039e-11
1.27877e-11
1.27714e-11
1.27555e-11
1.28765e-11
1.2876e-11
1.28749e-11
1.28733e-11
1.28711e-11
1.28682e-11
1.28646e-11
1.28603e-11
1.28552e-11
1.28493e-11
1.28425e-11
1.28348e-11
1.28263e-11
1.28171e-11
1.28072e-11
1.27967e-11
1.27859e-11
1.27749e-11
1.27639e-11
1.27531e-11
1.28352e-11
1.28348e-11
1.28341e-11
1.28329e-11
1.28314e-11
1.28294e-11
1.2827e-11
1.2824e-11
1.28205e-11
1.28164e-11
1.28118e-11
1.28066e-11
1.28008e-11
1.27946e-11
1.27879e-11
1.27808e-11
1.27735e-11
1.27661e-11
1.27587e-11
1.27514e-11
1.28068e-11
1.28065e-11
1.2806e-11
1.28052e-11
1.28042e-11
1.28028e-11
1.28011e-11
1.27991e-11
1.27967e-11
1.2794e-11
1.27908e-11
1.27873e-11
1.27834e-11
1.27792e-11
1.27747e-11
1.277e-11
1.27651e-11
1.27601e-11
1.27551e-11
1.27503e-11
1.27874e-11
1.27872e-11
1.27869e-11
1.27863e-11
1.27856e-11
1.27847e-11
1.27835e-11
1.27822e-11
1.27806e-11
1.27787e-11
1.27766e-11
1.27742e-11
1.27716e-11
1.27688e-11
1.27658e-11
1.27626e-11
1.27593e-11
1.2756e-11
1.27527e-11
1.27495e-11
1.27742e-11
1.27741e-11
1.27739e-11
1.27735e-11
1.2773e-11
1.27724e-11
1.27716e-11
1.27707e-11
1.27696e-11
1.27683e-11
1.27669e-11
1.27653e-11
1.27636e-11
1.27617e-11
1.27597e-11
1.27576e-11
1.27555e-11
1.27533e-11
1.27511e-11
1.2749e-11
1.27653e-11
1.27652e-11
1.27651e-11
1.27648e-11
1.27645e-11
1.27641e-11
1.27636e-11
1.27629e-11
1.27622e-11
1.27614e-11
1.27604e-11
1.27594e-11
1.27583e-11
1.2757e-11
1.27557e-11
1.27543e-11
1.27529e-11
1.27514e-11
1.275e-11
1.27486e-11
1.27594e-11
1.27593e-11
1.27592e-11
1.2759e-11
1.27588e-11
1.27585e-11
1.27582e-11
1.27578e-11
1.27573e-11
1.27567e-11
1.27561e-11
1.27554e-11
1.27547e-11
1.27539e-11
1.2753e-11
1.27521e-11
1.27512e-11
1.27502e-11
1.27493e-11
1.27484e-11
1.27554e-11
1.27553e-11
1.27553e-11
1.27552e-11
1.2755e-11
1.27548e-11
1.27546e-11
1.27543e-11
1.2754e-11
1.27537e-11
1.27533e-11
1.27528e-11
1.27523e-11
1.27518e-11
1.27512e-11
1.27506e-11
1.275e-11
1.27494e-11
1.27488e-11
1.27482e-11
1.27528e-11
1.27527e-11
1.27527e-11
1.27526e-11
1.27525e-11
1.27524e-11
1.27522e-11
1.27521e-11
1.27519e-11
1.27516e-11
1.27514e-11
1.27511e-11
1.27508e-11
1.27504e-11
1.275e-11
1.27497e-11
1.27493e-11
1.27489e-11
1.27485e-11
1.27481e-11
1.2751e-11
1.2751e-11
1.2751e-11
1.27509e-11
1.27509e-11
1.27508e-11
1.27507e-11
1.27506e-11
1.27505e-11
1.27503e-11
1.27501e-11
1.27499e-11
1.27497e-11
1.27495e-11
1.27493e-11
1.2749e-11
1.27488e-11
1.27485e-11
1.27483e-11
1.2748e-11
1.27499e-11
1.27499e-11
1.27499e-11
1.27498e-11
1.27498e-11
1.27498e-11
1.27497e-11
1.27496e-11
1.27495e-11
1.27494e-11
1.27493e-11
1.27492e-11
1.27491e-11
1.27489e-11
1.27488e-11
1.27486e-11
1.27485e-11
1.27483e-11
1.27482e-11
1.2748e-11
1.27492e-11
1.27492e-11
1.27492e-11
1.27491e-11
1.27491e-11
1.27491e-11
1.2749e-11
1.2749e-11
1.27489e-11
1.27489e-11
1.27488e-11
1.27487e-11
1.27487e-11
1.27486e-11
1.27485e-11
1.27484e-11
1.27483e-11
1.27482e-11
1.27481e-11
1.2748e-11
1.27487e-11
1.27487e-11
1.27487e-11
1.27487e-11
1.27487e-11
1.27487e-11
1.27486e-11
1.27486e-11
1.27486e-11
1.27485e-11
1.27485e-11
1.27484e-11
1.27484e-11
1.27483e-11
1.27483e-11
1.27482e-11
1.27481e-11
1.27481e-11
1.2748e-11
1.2748e-11
1.27484e-11
1.27484e-11
1.27484e-11
1.27484e-11
1.27484e-11
1.27484e-11
1.27484e-11
1.27483e-11
1.27483e-11
1.27483e-11
1.27483e-11
1.27482e-11
1.27482e-11
1.27482e-11
1.27481e-11
1.27481e-11
1.27481e-11
1.2748e-11
1.2748e-11
1.27479e-11
1.27482e-11
1.27482e-11
1.27482e-11
1.27482e-11
1.27482e-11
1.27482e-11
1.27482e-11
1.27482e-11
1.27482e-11
1.27482e-11
1.27481e-11
1.27481e-11
1.27481e-11
1.27481e-11
1.27481e-11
1.2748e-11
1.2748e-11
1.2748e-11
1.2748e-11
1.27479e-11
1.27481e-11
1.27481e-11
1.27481e-11
1.27481e-11
1.27481e-11
1.27481e-11
1.27481e-11
1.27481e-11
1.27481e-11
1.27481e-11
1.27481e-11
1.2748e-11
1.2748e-11
1.2748e-11
1.2748e-11
1.2748e-11
1.2748e-11
1.2748e-11
1.27479e-11
1.27479e-11
1.2748e-11
1.2748e-11
1.2748e-11
1.2748e-11
1.2748e-11
1.2748e-11
1.2748e-11
1.2748e-11
1.2748e-11
1.2748e-11
1.2748e-11
1.2748e-11
1.2748e-11
1.2748e-11
1.2748e-11
1.2748e-11
1.2748e-11
1.27479e-11
1.27479e-11
1.27479e-11
1.2748e-11
1.2748e-11
1.2748e-11
1.2748e-11
1.2748e-11
1.2748e-11
1.2748e-11
1.2748e-11
1.2748e-11
1.2748e-11
1.2748e-11
1.2748e-11
1.2748e-11
1.2748e-11
1.2748e-11
1.27479e-11
1.27479e-11
1.27479e-11
1.27479e-11
1.27479e-11
1.2748e-11
1.2748e-11
1.2748e-11
1.2748e-11
1.2748e-11
1.2748e-11
1.2748e-11
1.2748e-11
1.2748e-11
1.2748e-11
1.2748e-11
1.2748e-11
1.2748e-11
1.27479e-11
1.27479e-11
1.27479e-11
1.27479e-11
1.27479e-11
1.27479e-11
1.27479e-11
1.2748e-11
1.2748e-11
1.2748e-11
1.2748e-11
1.2748e-11
1.2748e-11
1.2748e-11
1.2748e-11
1.2748e-11
1.2748e-11
1.2748e-11
1.27479e-11
1.27479e-11
1.27479e-11
1.27479e-11
1.27479e-11
1.27479e-11
1.27479e-11
1.27479e-11
1.27479e-11
)
;

boundaryField
{
    topWall
    {
        type            zeroGradient;
    }
    bottomWall
    {
        type            zeroGradient;
    }
    sideWallL
    {
        type            symmetry;
    }
    sideWallR
    {
        type            zeroGradient;
    }
    frontAndBack
    {
        type            empty;
    }
}


// ************************************************************************* //
