/*--------------------------------*- C++ -*----------------------------------*\
  =========                 |
  \\      /  F ield         | OpenFOAM: The Open Source CFD Toolbox
   \\    /   O peration     | Website:  https://openfoam.org
    \\  /    A nd           | Version:  7
     \\/     M anipulation  |
\*---------------------------------------------------------------------------*/
FoamFile
{
    version     2.0;
    format      ascii;
    class       volScalarField;
    location    "20";
    object      rhot1;
}
// * * * * * * * * * * * * * * * * * * * * * * * * * * * * * * * * * * * * * //

dimensions      [1 -3 0 0 0 0 0];

internalField   nonuniform List<scalar> 
900
(
0.000139386
0.000139307
0.000139141
0.000138873
0.000138476
0.000137914
0.000137129
0.000136043
0.000134545
0.000132473
0.000129599
0.00012559
0.000119957
0.000111976
0.000100574
8.42026e-05
6.10177e-05
3.11228e-05
5.47086e-06
1.21691e-08
9.18453e-06
9.16738e-06
9.13154e-06
9.07382e-06
8.9891e-06
8.8699e-06
8.7058e-06
8.48272e-06
8.18206e-06
7.77993e-06
7.24697e-06
6.54976e-06
5.65635e-06
4.55045e-06
3.26171e-06
1.91661e-06
7.80203e-07
1.51844e-07
5.78638e-09
4.58962e-12
6.55707e-07
6.53533e-07
6.49007e-07
6.41755e-07
6.31196e-07
6.16506e-07
5.96593e-07
5.70082e-07
5.35343e-07
4.90617e-07
4.3433e-07
3.6575e-07
2.86114e-07
2.0023e-07
1.17834e-07
5.24699e-08
1.4673e-08
1.84153e-09
5.75892e-11
2.18734e-13
5.2649e-08
5.23973e-08
5.18748e-08
5.10427e-08
4.98419e-08
4.81918e-08
4.5992e-08
4.31275e-08
3.94825e-08
3.49678e-08
2.95699e-08
2.34237e-08
1.68973e-08
1.06389e-08
5.47971e-09
2.08952e-09
5.06327e-10
6.24172e-11
3.00511e-12
5.90013e-14
4.91981e-09
4.88966e-09
4.82731e-09
4.72864e-09
4.5875e-09
4.39594e-09
4.14471e-09
3.82448e-09
3.42803e-09
2.95397e-09
2.41196e-09
1.8286e-09
1.2509e-09
7.41529e-10
3.5987e-10
1.32208e-10
3.31976e-11
5.0855e-12
4.49013e-13
3.05274e-14
5.5082e-10
5.46843e-10
5.38644e-10
5.25743e-10
5.07446e-10
4.82893e-10
4.51162e-10
4.11463e-10
3.63445e-10
3.0764e-10
2.45992e-10
1.82264e-10
1.21954e-10
7.12281e-11
3.47636e-11
1.34482e-11
3.89911e-12
8.16515e-13
1.29561e-13
2.10115e-14
7.55669e-11
7.49653e-11
7.37289e-11
7.17935e-11
6.90684e-11
6.54463e-11
6.08217e-11
5.51206e-11
4.83445e-11
4.06273e-11
3.22909e-11
2.38715e-11
1.60722e-11
9.60538e-12
4.94697e-12
2.13028e-12
7.50549e-13
2.18201e-13
5.69993e-14
1.67108e-14
1.28965e-11
1.27896e-11
1.25705e-11
1.22288e-11
1.17506e-11
1.11197e-11
1.03213e-11
9.34715e-12
8.20243e-12
6.91391e-12
5.537e-12
4.15721e-12
2.88059e-12
1.81023e-12
1.014e-12
4.99799e-13
2.16854e-13
8.5324e-14
3.30338e-14
1.44166e-14
2.75979e-12
2.73719e-12
2.69094e-12
2.61907e-12
2.51889e-12
2.38739e-12
2.22195e-12
2.0213e-12
1.78683e-12
1.524e-12
1.24344e-12
9.61047e-13
6.96192e-13
4.67837e-13
2.89364e-13
1.64518e-13
8.6994e-14
4.42287e-14
2.29473e-14
1.30643e-14
7.41905e-13
7.36201e-13
7.24547e-13
7.06473e-13
6.81346e-13
6.48465e-13
6.0722e-13
5.57314e-13
4.99044e-13
4.33607e-13
3.63326e-13
2.9167e-13
2.22918e-13
1.61416e-13
1.10574e-13
7.19992e-14
4.52106e-14
2.81152e-14
1.79589e-14
1.22147e-14
2.49802e-13
2.48093e-13
2.44604e-13
2.392e-13
2.31698e-13
2.21893e-13
2.09603e-13
1.94725e-13
1.77308e-13
1.57635e-13
1.36279e-13
1.1412e-13
9.22805e-14
7.19588e-14
5.42044e-14
3.96913e-14
2.85955e-14
2.06283e-14
1.52056e-14
1.16578e-14
1.04504e-13
1.03903e-13
1.02676e-13
1.00777e-13
9.81431e-14
9.47007e-14
9.03822e-14
8.51421e-14
7.89795e-14
7.19624e-14
6.4248e-14
5.60906e-14
4.78291e-14
3.9849e-14
3.25213e-14
2.61371e-14
2.08577e-14
1.67009e-14
1.35659e-14
1.1282e-14
5.3473e-14
5.32289e-14
5.27308e-14
5.196e-14
5.08905e-14
4.9492e-14
4.77348e-14
4.55958e-14
4.30666e-14
4.01621e-14
3.6928e-14
3.34457e-14
2.98308e-14
2.62226e-14
2.27676e-14
1.95974e-14
1.68092e-14
1.44539e-14
1.25361e-14
1.10235e-14
3.26165e-14
3.25041e-14
3.22749e-14
3.19202e-14
3.14279e-14
3.07837e-14
2.99728e-14
2.89826e-14
2.78055e-14
2.6443e-14
2.49086e-14
2.32302e-14
2.14511e-14
1.96268e-14
1.78202e-14
1.60942e-14
1.45029e-14
1.30859e-14
1.18646e-14
1.08432e-14
2.29322e-14
2.28748e-14
2.27576e-14
2.25764e-14
2.23248e-14
2.19953e-14
2.15799e-14
2.10713e-14
2.04641e-14
1.97566e-14
1.89523e-14
1.80614e-14
1.71011e-14
1.60954e-14
1.50736e-14
1.40669e-14
1.31055e-14
1.22152e-14
1.14152e-14
1.07164e-14
1.79442e-14
1.79123e-14
1.78471e-14
1.77462e-14
1.76062e-14
1.74229e-14
1.71915e-14
1.69076e-14
1.65677e-14
1.61696e-14
1.57139e-14
1.52042e-14
1.4648e-14
1.40562e-14
1.34433e-14
1.28255e-14
1.22202e-14
1.16434e-14
1.11088e-14
1.06267e-14
1.51563e-14
1.51373e-14
1.50985e-14
1.50385e-14
1.49552e-14
1.48462e-14
1.47086e-14
1.45396e-14
1.43369e-14
1.40987e-14
1.38247e-14
1.35162e-14
1.31765e-14
1.2811e-14
1.24271e-14
1.20339e-14
1.16413e-14
1.12593e-14
1.08973e-14
1.0563e-14
1.34971e-14
1.34852e-14
1.34609e-14
1.34233e-14
1.33712e-14
1.33031e-14
1.32171e-14
1.31115e-14
1.29847e-14
1.28354e-14
1.26632e-14
1.24685e-14
1.22529e-14
1.2019e-14
1.1771e-14
1.15141e-14
1.12541e-14
1.09974e-14
1.07501e-14
1.05178e-14
1.2462e-14
1.24543e-14
1.24384e-14
1.2414e-14
1.23802e-14
1.2336e-14
1.22802e-14
1.22118e-14
1.21297e-14
1.2033e-14
1.19213e-14
1.17946e-14
1.16539e-14
1.15004e-14
1.13367e-14
1.11658e-14
1.09912e-14
1.0817e-14
1.06472e-14
1.04857e-14
1.17936e-14
1.17884e-14
1.17778e-14
1.17615e-14
1.17389e-14
1.17095e-14
1.16724e-14
1.16269e-14
1.15724e-14
1.15083e-14
1.14341e-14
1.135e-14
1.12563e-14
1.1154e-14
1.10443e-14
1.09292e-14
1.08109e-14
1.0692e-14
1.05752e-14
1.0463e-14
1.13512e-14
1.13476e-14
1.13404e-14
1.13293e-14
1.1314e-14
1.1294e-14
1.12689e-14
1.12381e-14
1.12013e-14
1.11581e-14
1.11081e-14
1.10515e-14
1.09883e-14
1.09193e-14
1.08451e-14
1.0767e-14
1.06864e-14
1.06051e-14
1.05246e-14
1.04469e-14
1.10533e-14
1.10508e-14
1.10458e-14
1.10382e-14
1.10276e-14
1.10139e-14
1.09967e-14
1.09757e-14
1.09506e-14
1.09211e-14
1.08872e-14
1.08487e-14
1.08058e-14
1.07589e-14
1.07085e-14
1.06553e-14
1.06003e-14
1.05446e-14
1.04893e-14
1.04356e-14
1.08504e-14
1.08487e-14
1.08453e-14
1.084e-14
1.08326e-14
1.08232e-14
1.08113e-14
1.07969e-14
1.07796e-14
1.07595e-14
1.07363e-14
1.071e-14
1.06808e-14
1.06488e-14
1.06144e-14
1.05782e-14
1.05406e-14
1.05025e-14
1.04646e-14
1.04277e-14
1.07114e-14
1.07102e-14
1.07078e-14
1.07041e-14
1.0699e-14
1.06925e-14
1.06843e-14
1.06743e-14
1.06625e-14
1.06486e-14
1.06327e-14
1.06148e-14
1.05948e-14
1.0573e-14
1.05496e-14
1.05249e-14
1.04993e-14
1.04733e-14
1.04474e-14
1.04222e-14
1.06158e-14
1.0615e-14
1.06133e-14
1.06107e-14
1.06072e-14
1.06027e-14
1.0597e-14
1.05901e-14
1.0582e-14
1.05725e-14
1.05616e-14
1.05493e-14
1.05357e-14
1.05209e-14
1.0505e-14
1.04882e-14
1.04708e-14
1.04532e-14
1.04355e-14
1.04183e-14
1.055e-14
1.05495e-14
1.05483e-14
1.05465e-14
1.05441e-14
1.05409e-14
1.0537e-14
1.05323e-14
1.05267e-14
1.05202e-14
1.05128e-14
1.05044e-14
1.04952e-14
1.04851e-14
1.04743e-14
1.0463e-14
1.04512e-14
1.04393e-14
1.04273e-14
1.04157e-14
1.05049e-14
1.05045e-14
1.05037e-14
1.05024e-14
1.05008e-14
1.04986e-14
1.04959e-14
1.04927e-14
1.04889e-14
1.04844e-14
1.04794e-14
1.04737e-14
1.04675e-14
1.04607e-14
1.04534e-14
1.04457e-14
1.04378e-14
1.04297e-14
1.04217e-14
1.04138e-14
1.04739e-14
1.04737e-14
1.04731e-14
1.04723e-14
1.04711e-14
1.04696e-14
1.04678e-14
1.04656e-14
1.0463e-14
1.046e-14
1.04566e-14
1.04528e-14
1.04485e-14
1.0444e-14
1.04391e-14
1.04339e-14
1.04286e-14
1.04232e-14
1.04179e-14
1.04126e-14
1.04529e-14
1.04527e-14
1.04523e-14
1.04517e-14
1.04509e-14
1.04499e-14
1.04487e-14
1.04472e-14
1.04454e-14
1.04434e-14
1.04411e-14
1.04385e-14
1.04357e-14
1.04327e-14
1.04294e-14
1.0426e-14
1.04224e-14
1.04188e-14
1.04153e-14
1.04118e-14
1.04385e-14
1.04384e-14
1.04382e-14
1.04378e-14
1.04372e-14
1.04366e-14
1.04357e-14
1.04347e-14
1.04335e-14
1.04322e-14
1.04307e-14
1.04289e-14
1.04271e-14
1.0425e-14
1.04229e-14
1.04206e-14
1.04182e-14
1.04159e-14
1.04135e-14
1.04112e-14
1.04289e-14
1.04288e-14
1.04286e-14
1.04284e-14
1.0428e-14
1.04276e-14
1.0427e-14
1.04263e-14
1.04256e-14
1.04247e-14
1.04236e-14
1.04225e-14
1.04213e-14
1.04199e-14
1.04185e-14
1.0417e-14
1.04154e-14
1.04139e-14
1.04123e-14
1.04108e-14
1.04224e-14
1.04224e-14
1.04223e-14
1.04221e-14
1.04219e-14
1.04216e-14
1.04212e-14
1.04207e-14
1.04202e-14
1.04196e-14
1.04189e-14
1.04182e-14
1.04174e-14
1.04165e-14
1.04156e-14
1.04146e-14
1.04136e-14
1.04126e-14
1.04115e-14
1.04105e-14
1.04181e-14
1.04181e-14
1.0418e-14
1.04179e-14
1.04178e-14
1.04176e-14
1.04173e-14
1.0417e-14
1.04167e-14
1.04163e-14
1.04158e-14
1.04154e-14
1.04148e-14
1.04142e-14
1.04136e-14
1.0413e-14
1.04123e-14
1.04117e-14
1.0411e-14
1.04104e-14
1.04153e-14
1.04153e-14
1.04152e-14
1.04151e-14
1.0415e-14
1.04149e-14
1.04148e-14
1.04146e-14
1.04143e-14
1.04141e-14
1.04138e-14
1.04135e-14
1.04131e-14
1.04128e-14
1.04124e-14
1.0412e-14
1.04115e-14
1.04111e-14
1.04107e-14
1.04103e-14
1.04134e-14
1.04134e-14
1.04134e-14
1.04133e-14
1.04133e-14
1.04132e-14
1.04131e-14
1.0413e-14
1.04128e-14
1.04126e-14
1.04125e-14
1.04123e-14
1.0412e-14
1.04118e-14
1.04115e-14
1.04113e-14
1.0411e-14
1.04107e-14
1.04105e-14
1.04102e-14
1.04122e-14
1.04122e-14
1.04122e-14
1.04122e-14
1.04121e-14
1.04121e-14
1.0412e-14
1.04119e-14
1.04118e-14
1.04117e-14
1.04116e-14
1.04115e-14
1.04113e-14
1.04112e-14
1.0411e-14
1.04108e-14
1.04107e-14
1.04105e-14
1.04103e-14
1.04102e-14
1.04114e-14
1.04114e-14
1.04114e-14
1.04114e-14
1.04114e-14
1.04113e-14
1.04113e-14
1.04112e-14
1.04112e-14
1.04111e-14
1.0411e-14
1.04109e-14
1.04109e-14
1.04108e-14
1.04107e-14
1.04106e-14
1.04104e-14
1.04103e-14
1.04102e-14
1.04101e-14
1.04109e-14
1.04109e-14
1.04109e-14
1.04109e-14
1.04109e-14
1.04109e-14
1.04108e-14
1.04108e-14
1.04108e-14
1.04107e-14
1.04107e-14
1.04106e-14
1.04106e-14
1.04105e-14
1.04104e-14
1.04104e-14
1.04103e-14
1.04102e-14
1.04102e-14
1.04101e-14
1.04106e-14
1.04106e-14
1.04106e-14
1.04106e-14
1.04106e-14
1.04106e-14
1.04105e-14
1.04105e-14
1.04105e-14
1.04105e-14
1.04104e-14
1.04104e-14
1.04104e-14
1.04103e-14
1.04103e-14
1.04103e-14
1.04102e-14
1.04102e-14
1.04101e-14
1.04101e-14
1.04104e-14
1.04104e-14
1.04104e-14
1.04104e-14
1.04104e-14
1.04104e-14
1.04104e-14
1.04104e-14
1.04103e-14
1.04103e-14
1.04103e-14
1.04103e-14
1.04103e-14
1.04102e-14
1.04102e-14
1.04102e-14
1.04102e-14
1.04101e-14
1.04101e-14
1.04101e-14
1.04103e-14
1.04103e-14
1.04103e-14
1.04103e-14
1.04103e-14
1.04103e-14
1.04103e-14
1.04102e-14
1.04102e-14
1.04102e-14
1.04102e-14
1.04102e-14
1.04102e-14
1.04102e-14
1.04102e-14
1.04101e-14
1.04101e-14
1.04101e-14
1.04101e-14
1.04101e-14
1.04102e-14
1.04102e-14
1.04102e-14
1.04102e-14
1.04102e-14
1.04102e-14
1.04102e-14
1.04102e-14
1.04102e-14
1.04102e-14
1.04102e-14
1.04102e-14
1.04101e-14
1.04101e-14
1.04101e-14
1.04101e-14
1.04101e-14
1.04101e-14
1.04101e-14
1.04101e-14
1.04102e-14
1.04102e-14
1.04102e-14
1.04101e-14
1.04101e-14
1.04101e-14
1.04101e-14
1.04101e-14
1.04101e-14
1.04101e-14
1.04101e-14
1.04101e-14
1.04101e-14
1.04101e-14
1.04101e-14
1.04101e-14
1.04101e-14
1.04101e-14
1.04101e-14
1.04101e-14
1.04101e-14
1.04101e-14
1.04101e-14
1.04101e-14
1.04101e-14
1.04101e-14
1.04101e-14
1.04101e-14
1.04101e-14
1.04101e-14
1.04101e-14
1.04101e-14
1.04101e-14
1.04101e-14
1.04101e-14
1.04101e-14
1.04101e-14
1.04101e-14
1.04101e-14
1.04101e-14
1.04101e-14
1.04101e-14
1.04101e-14
1.04101e-14
1.04101e-14
1.04101e-14
1.04101e-14
1.04101e-14
1.04101e-14
1.04101e-14
1.04101e-14
1.04101e-14
1.04101e-14
1.04101e-14
1.04101e-14
1.04101e-14
1.04101e-14
1.04101e-14
1.04101e-14
1.04101e-14
)
;

boundaryField
{
    topWall
    {
        type            zeroGradient;
    }
    bottomWall
    {
        type            zeroGradient;
    }
    sideWallL
    {
        type            symmetry;
    }
    sideWallR
    {
        type            calculated;
        value           uniform 0;
    }
    frontAndBack
    {
        type            empty;
    }
}


// ************************************************************************* //
