/*--------------------------------*- C++ -*----------------------------------*\
  =========                 |
  \\      /  F ield         | OpenFOAM: The Open Source CFD Toolbox
   \\    /   O peration     | Website:  https://openfoam.org
    \\  /    A nd           | Version:  7
     \\/     M anipulation  |
\*---------------------------------------------------------------------------*/
FoamFile
{
    version     2.0;
    format      ascii;
    class       volScalarField;
    location    "20";
    object      T;
}
// * * * * * * * * * * * * * * * * * * * * * * * * * * * * * * * * * * * * * //

dimensions      [0 0 0 1 0 0 0];

internalField   nonuniform List<scalar> 
900
(
455.917
455.909
455.894
455.869
455.832
455.78
455.707
455.606
455.467
455.274
455.002
454.617
454.058
453.228
451.945
449.849
446.112
438.518
420.052
365.453
426.474
426.452
426.408
426.336
426.23
426.08
425.872
425.585
425.19
424.642
423.878
422.8
421.255
418.996
415.599
410.304
401.672
386.842
360.13
311.606
401.179
401.145
401.075
400.962
400.796
400.562
400.238
399.793
399.183
398.344
397.186
395.572
393.3
390.057
385.351
378.398
367.938
352.016
327.971
293.625
379.528
379.484
379.393
379.247
379.032
378.731
378.317
377.751
376.981
375.934
374.506
372.548
369.848
366.103
360.871
353.529
343.227
328.934
309.746
285.824
361.073
361.022
360.916
360.745
360.496
360.148
359.672
359.027
358.158
356.988
355.416
353.299
350.446
346.599
341.418
334.475
325.28
313.384
298.642
281.67
345.418
345.362
345.246
345.06
344.791
344.416
343.907
343.223
342.31
341.098
339.492
337.37
334.573
330.904
326.124
319.967
312.186
302.635
291.43
279.139
332.205
332.147
332.027
331.836
331.559
331.176
330.659
329.971
329.064
327.874
326.321
324.305
321.705
318.378
314.168
308.926
302.543
295.013
286.511
277.464
321.117
321.059
320.939
320.75
320.477
320.101
319.599
318.936
318.07
316.95
315.509
313.671
311.346
308.437
304.85
300.505
295.37
289.492
283.034
276.3
311.866
311.81
311.695
311.513
311.253
310.898
310.425
309.808
309.011
307.99
306.697
305.073
303.055
300.581
297.595
294.062
289.985
285.425
280.514
275.463
304.195
304.143
304.036
303.867
303.627
303.3
302.869
302.31
301.596
300.692
299.562
298.163
296.454
294.393
291.953
289.12
285.914
282.391
278.654
274.85
297.877
297.83
297.733
297.58
297.362
297.069
296.685
296.192
295.568
294.787
293.821
292.641
291.22
289.533
287.567
285.321
282.819
280.108
277.266
274.393
292.708
292.666
292.579
292.444
292.252
291.995
291.661
291.235
290.7
290.038
289.229
288.252
287.089
285.728
284.163
282.399
280.458
278.38
276.22
274.051
288.508
288.472
288.396
288.278
288.113
287.892
287.607
287.246
286.796
286.245
285.577
284.78
283.843
282.758
281.524
280.15
278.654
277.067
275.43
273.792
285.12
285.089
285.024
284.924
284.784
284.597
284.358
284.057
283.685
283.233
282.691
282.05
281.303
280.447
279.484
278.422
277.275
276.068
274.83
273.596
282.407
282.38
282.326
282.242
282.125
281.97
281.772
281.526
281.223
280.858
280.423
279.913
279.325
278.657
277.911
277.096
276.222
275.308
274.374
273.447
280.249
280.227
280.183
280.113
280.017
279.891
279.73
279.53
279.287
278.996
278.652
278.251
277.792
277.275
276.703
276.081
275.419
274.729
274.029
273.335
278.547
278.529
278.493
278.437
278.359
278.257
278.128
277.968
277.776
277.546
277.276
276.965
276.61
276.214
275.778
275.306
274.808
274.291
273.767
273.249
277.214
277.2
277.17
277.125
277.063
276.982
276.88
276.754
276.603
276.424
276.215
275.976
275.704
275.403
275.073
274.718
274.345
273.959
273.57
273.185
276.178
276.167
276.144
276.108
276.059
275.995
275.915
275.818
275.7
275.562
275.402
275.219
275.013
274.786
274.538
274.273
273.995
273.709
273.421
273.137
275.379
275.371
275.352
275.325
275.286
275.237
275.175
275.1
275.01
274.905
274.783
274.645
274.49
274.319
274.135
273.938
273.732
273.521
273.309
273.1
274.768
274.761
274.747
274.726
274.697
274.659
274.611
274.554
274.486
274.406
274.314
274.211
274.095
273.969
273.832
273.687
273.536
273.381
273.226
273.073
274.304
274.299
274.288
274.272
274.25
274.221
274.185
274.142
274.09
274.031
273.963
273.886
273.8
273.707
273.606
273.5
273.39
273.277
273.164
273.053
273.955
273.951
273.943
273.931
273.914
273.892
273.865
273.833
273.795
273.75
273.7
273.643
273.581
273.512
273.439
273.362
273.282
273.2
273.119
273.039
273.694
273.691
273.685
273.676
273.663
273.647
273.627
273.603
273.575
273.543
273.506
273.464
273.419
273.369
273.316
273.26
273.202
273.144
273.085
273.028
273.5
273.498
273.494
273.487
273.478
273.466
273.451
273.434
273.413
273.389
273.363
273.333
273.3
273.264
273.226
273.186
273.145
273.103
273.061
273.02
273.358
273.357
273.353
273.348
273.341
273.333
273.322
273.309
273.295
273.277
273.258
273.237
273.213
273.187
273.16
273.132
273.102
273.073
273.043
273.014
273.254
273.253
273.251
273.247
273.242
273.236
273.228
273.219
273.208
273.196
273.182
273.167
273.15
273.132
273.113
273.093
273.072
273.051
273.03
273.01
273.179
273.178
273.177
273.174
273.171
273.166
273.161
273.154
273.146
273.138
273.128
273.117
273.105
273.093
273.079
273.065
273.05
273.036
273.021
273.007
273.125
273.125
273.124
273.122
273.119
273.116
273.112
273.108
273.102
273.096
273.089
273.082
273.073
273.064
273.055
273.045
273.035
273.025
273.015
273.005
273.087
273.087
273.086
273.084
273.083
273.08
273.078
273.074
273.071
273.066
273.062
273.056
273.051
273.044
273.038
273.031
273.024
273.017
273.01
273.003
273.06
273.06
273.059
273.058
273.057
273.055
273.053
273.051
273.049
273.046
273.042
273.039
273.035
273.03
273.026
273.021
273.017
273.012
273.007
273.002
273.041
273.041
273.04
273.04
273.039
273.038
273.036
273.035
273.033
273.031
273.029
273.026
273.024
273.021
273.018
273.014
273.011
273.008
273.005
273.002
273.028
273.028
273.027
273.027
273.026
273.026
273.025
273.024
273.022
273.021
273.019
273.018
273.016
273.014
273.012
273.01
273.008
273.005
273.003
273.001
273.019
273.019
273.018
273.018
273.018
273.017
273.017
273.016
273.015
273.014
273.013
273.012
273.011
273.009
273.008
273.007
273.005
273.004
273.002
273.001
273.012
273.012
273.012
273.012
273.012
273.011
273.011
273.011
273.01
273.009
273.009
273.008
273.007
273.006
273.005
273.004
273.003
273.002
273.001
273
273.008
273.008
273.008
273.008
273.008
273.008
273.007
273.007
273.007
273.006
273.006
273.005
273.005
273.004
273.003
273.003
273.002
273.002
273.001
273
273.005
273.005
273.005
273.005
273.005
273.005
273.005
273.005
273.004
273.004
273.004
273.003
273.003
273.003
273.002
273.002
273.001
273.001
273.001
273
273.004
273.004
273.003
273.003
273.003
273.003
273.003
273.003
273.003
273.003
273.002
273.002
273.002
273.002
273.001
273.001
273.001
273.001
273
273
273.002
273.002
273.002
273.002
273.002
273.002
273.002
273.002
273.002
273.002
273.002
273.001
273.001
273.001
273.001
273.001
273.001
273
273
273
273.001
273.001
273.001
273.001
273.001
273.001
273.001
273.001
273.001
273.001
273.001
273.001
273.001
273.001
273.001
273.001
273
273
273
273
273.001
273.001
273.001
273.001
273.001
273.001
273.001
273.001
273.001
273.001
273.001
273.001
273.001
273
273
273
273
273
273
273
273.001
273.001
273.001
273.001
273.001
273.001
273.001
273.001
273
273
273
273
273
273
273
273
273
273
273
273
273
273
273
273
273
273
273
273
273
273
273
273
273
273
273
273
273
273
273
273
273
273
273
273
273
273
273
273
273
273
273
273
273
273
273
273
273
273
273
273
273
273
273
273
273
273
273
273
273
273
273
273
273
273
273
273
273
273
273
273
)
;

boundaryField
{
    topWall
    {
        type            zeroGradient;
    }
    bottomWall
    {
        type            codedFixedValue;
        value           uniform 473;
        name            heating;
        code            #{
            const scalar t = this->db().time().value();
            const scalar Ttemp = 273 + 10*t;
            operator==(Ttemp);
        #};
    }
    sideWallL
    {
        type            symmetry;
    }
    sideWallR
    {
        type            fixedValue;
        value           uniform 273;
    }
    frontAndBack
    {
        type            empty;
    }
}


// ************************************************************************* //
