/*--------------------------------*- C++ -*----------------------------------*\
  =========                 |
  \\      /  F ield         | OpenFOAM: The Open Source CFD Toolbox
   \\    /   O peration     | Website:  https://openfoam.org
    \\  /    A nd           | Version:  7
     \\/     M anipulation  |
\*---------------------------------------------------------------------------*/
FoamFile
{
    version     2.0;
    format      ascii;
    class       volScalarField;
    location    "8";
    object      gradTy;
}
// * * * * * * * * * * * * * * * * * * * * * * * * * * * * * * * * * * * * * //

dimensions      [0 -1 0 1 0 0 0];

internalField   nonuniform List<scalar> 
900
(
-93036.1
-93038.3
-93043.3
-93052.6
-93068.6
-93095.8
-93141.4
-93217.5
-93343.8
-93553.1
-93899.8
-94475.6
-95437.4
-97062.6
-99861.3
-104827
-114043
-132313
-171977
-268409
-74339.1
-74341.1
-74345.5
-74353.6
-74367.6
-74391.1
-74430.4
-74495.2
-74601.7
-74775.7
-75058.8
-75517.8
-76259.4
-77454.1
-79367.3
-82385.2
-86940.5
-92889.2
-96317
-74903.7
-58664.4
-58665.9
-58669.3
-58675.5
-58686.1
-58703.6
-58732.4
-58779
-58853.6
-58971.7
-59155.7
-59437.4
-59857.5
-60458.5
-61254
-62130.8
-62566.7
-60878
-52461.7
-27032
-45675.6
-45676.5
-45678.7
-45682.5
-45689
-45699.4
-45715.8
-45741.1
-45779.2
-45834.7
-45911.6
-46009.8
-46116
-46182.1
-46077.6
-45488.1
-43714.4
-39335.3
-29863.8
-12305.4
-35054.7
-35055.1
-35056
-35057.4
-35059.7
-35062.9
-35067.2
-35072.1
-35076.2
-35075.4
-35059.9
-35008.5
-34876.6
-34575.3
-33932.7
-32631.5
-30122.4
-25556.2
-17895.4
-6607.03
-26496.9
-26496.8
-26496.5
-26495.9
-26494.5
-26491.6
-26485.7
-26474.1
-26451.6
-26408.6
-26327.7
-26177.7
-25903.8
-25412.2
-24547.3
-23065.2
-20614.4
-16764.7
-11162.6
-3911.06
-19710.7
-19710.2
-19709
-19706.8
-19702.6
-19695.2
-19682.2
-19659.4
-19619.7
-19551.1
-19433.8
-19235.2
-18903.6
-18358.6
-17481.5
-16108.5
-14039.3
-11079.9
-7148.03
-2439.96
-14420.5
-14419.7
-14417.9
-14414.6
-14408.8
-14398.7
-14381.7
-14353
-14305.1
-14226
-14096.8
-13888.7
-13559
-13046.4
-12268.9
-11125.6
-9510.84
-7347.51
-4644.59
-1563.11
-10369.8
-10368.9
-10366.9
-10363.1
-10356.5
-10345.5
-10327.2
-10297.1
-10248.3
-10170
-10046.3
-9853.93
-9560.56
-9123.14
-8488.5
-7598.05
-6399.59
-4868.44
-3035.9
-1013.12
-7326.03
-7325.11
-7323.02
-7319.23
-7312.75
-7302.01
-7284.47
-7256.21
-7211.31
-7141.01
-7032.74
-6869.13
-6627.13
-6278.02
-5789
-5127.52
-4269.52
-3211.5
-1983.82
-658.425
-5082.67
-5081.81
-5079.88
-5076.4
-5070.52
-5060.9
-5045.4
-5020.85
-4982.53
-4923.71
-4835.07
-4704.25
-4515.6
-4250.74
-3890.14
-3416.39
-2819.39
-2102.84
-1290.18
-426.599
-3461.77
-3461.03
-3459.36
-3456.37
-3451.38
-3443.29
-3430.44
-3410.36
-3379.51
-3332.98
-3264.15
-3164.57
-3024.04
-2831.15
-2574.6
-2245.43
-1840.02
-1363.51
-832.364
-274.475
-2314.06
-2313.45
-2312.09
-2309.66
-2305.64
-2299.2
-2289.08
-2273.47
-2249.82
-2214.67
-2163.52
-2090.8
-1990.04
-1854.34
-1677.35
-1454.6
-1185.27
-873.9
-531.434
-174.885
-1517.87
-1517.39
-1516.33
-1514.45
-1511.37
-1506.46
-1498.84
-1487.22
-1469.83
-1444.33
-1407.74
-1356.51
-1286.63
-1194.04
-1075.23
-928.075
-752.797
-552.819
-335.174
-110.127
-976.821
-976.464
-975.671
-974.278
-972.004
-968.421
-962.904
-954.577
-942.254
-924.4
-899.108
-864.153
-817.122
-755.667
-677.89
-582.834
-470.999
-344.768
-208.537
-68.4332
-616.702
-616.445
-615.876
-614.88
-613.265
-610.741
-606.887
-601.124
-592.682
-580.58
-563.627
-540.467
-509.674
-469.915
-420.184
-360.083
-290.095
-211.79
-127.858
-41.9161
-381.938
-381.758
-381.364
-380.676
-379.568
-377.848
-375.243
-371.38
-365.773
-357.81
-346.767
-331.835
-312.185
-287.075
-255.983
-218.762
-175.789
-128.06
-77.1889
-25.2846
-232.037
-231.916
-231.651
-231.192
-230.455
-229.319
-227.611
-225.097
-221.479
-216.384
-209.381
-199.997
-187.76
-172.262
-153.238
-130.648
-104.757
-76.1763
-45.8558
-15.0109
-138.285
-138.206
-138.033
-137.735
-137.26
-136.531
-135.443
-133.853
-131.58
-128.405
-124.075
-118.319
-110.874
-101.519
-90.1207
-76.6804
-61.3713
-44.5592
-26.794
-8.76614
-80.8466
-80.7966
-80.6873
-80.4994
-80.2013
-79.7466
-79.0716
-78.0918
-76.7009
-74.7712
-72.1583
-68.7096
-64.2802
-58.7528
-52.0624
-44.2209
-35.3365
-25.6231
-15.3933
-5.03382
-46.3708
-46.3399
-46.2727
-46.1574
-45.9753
-45.699
-45.291
-44.7024
-43.8719
-42.7269
-41.1864
-39.1662
-36.5878
-33.3897
-29.5409
-25.0535
-19.9928
-14.481
-8.69272
-2.84152
-26.095
-26.0764
-26.0361
-25.9672
-25.8588
-25.6951
-25.4546
-25.1094
-24.6252
-23.9614
-23.0734
-21.9156
-20.4461
-18.6333
-16.4626
-13.9434
-11.1138
-8.04207
-4.82426
-1.57644
-14.4093
-14.3984
-14.3748
-14.3346
-14.2717
-14.177
-14.0386
-13.8409
-13.5649
-13.1886
-12.6878
-12.0382
-11.2179
-10.2108
-9.01027
-7.62262
-6.06944
-4.38824
-2.63086
-0.859449
-7.80814
-7.80192
-7.78846
-7.7656
-7.72988
-7.6764
-7.59853
-7.48784
-7.33405
-7.12533
-6.84887
-6.49193
-6.0432
-5.49464
-4.84334
-4.09323
-3.25624
-2.35256
-1.4097
-0.460403
-4.15267
-4.1492
-4.1417
-4.12898
-4.10919
-4.07965
-4.03683
-3.9762
-3.89233
-3.77899
-3.62951
-3.43733
-3.19671
-2.90369
-2.55703
-2.15904
-1.71618
-1.2391
-0.742157
-0.242334
-2.16791
-2.16602
-2.16193
-2.15502
-2.14429
-2.12833
-2.10529
-2.07278
-2.028
-1.96772
-1.88853
-1.7871
-1.66058
-1.50704
-1.32596
-1.11868
-0.88858
-0.641197
-0.383893
-0.125327
-1.1111
-1.11009
-1.10791
-1.10423
-1.09854
-1.09011
-1.07796
-1.0609
-1.03748
-1.00606
-0.964936
-0.912447
-0.84719
-0.768244
-0.675411
-0.569409
-0.452002
-0.325997
-0.19511
-0.0636859
-0.559146
-0.558619
-0.557482
-0.555568
-0.552614
-0.548248
-0.541982
-0.533207
-0.521198
-0.505147
-0.484206
-0.457563
-0.424538
-0.3847
-0.337975
-0.284745
-0.225904
-0.162855
-0.0974387
-0.0318002
-0.276333
-0.276063
-0.275482
-0.274507
-0.273005
-0.27079
-0.267622
-0.263198
-0.257163
-0.249121
-0.238661
-0.225391
-0.208988
-0.189253
-0.16616
-0.139908
-0.11094
-0.0799441
-0.0478185
-0.0156041
-0.134136
-0.134001
-0.133711
-0.133223
-0.132475
-0.131374
-0.129803
-0.127616
-0.124642
-0.120689
-0.115562
-0.109076
-0.101078
-0.0914781
-0.0802693
-0.067551
-0.0535396
-0.0385669
-0.023063
-0.00752503
-0.0639648
-0.0638984
-0.0637559
-0.0635173
-0.0631515
-0.0626151
-0.0618515
-0.0607911
-0.0593526
-0.0574462
-0.0549798
-0.0518669
-0.0480379
-0.0434517
-0.0381073
-0.0320538
-0.0253945
-0.0182866
-0.0109329
-0.00356686
-0.0299705
-0.0299385
-0.02987
-0.0297554
-0.0295802
-0.0293237
-0.0289595
-0.028455
-0.0277723
-0.0268697
-0.0257047
-0.0242378
-0.0224373
-0.0202849
-0.0177814
-0.01495
-0.0118396
-0.00852313
-0.00509464
-0.00166197
-0.0138001
-0.013785
-0.0137527
-0.0136988
-0.0136164
-0.013496
-0.0133255
-0.0130899
-0.0127718
-0.0123522
-0.0118119
-0.0111329
-0.0103011
-0.00930864
-0.00815613
-0.00685462
-0.00542656
-0.00390543
-0.00233401
-0.000761339
-0.00624581
-0.00623882
-0.00622386
-0.00619892
-0.0061609
-0.00610549
-0.00602715
-0.00591911
-0.00577355
-0.00558197
-0.00533574
-0.00502696
-0.00464939
-0.00419965
-0.00367818
-0.00309008
-0.00244552
-0.00175957
-0.0010514
-0.000342934
-0.00277902
-0.00277585
-0.00276905
-0.00275773
-0.0027405
-0.00271545
-0.0026801
-0.00263144
-0.00256602
-0.00248008
-0.00236984
-0.00223184
-0.00206339
-0.00186306
-0.0016311
-0.00136984
-0.00108378
-0.000779608
-0.000465768
-0.00015191
-0.00121584
-0.00121442
-0.00121138
-0.00120634
-0.00119868
-0.00118755
-0.00117188
-0.00115035
-0.00112145
-0.00108357
-0.00103506
-0.000974442
-0.000900565
-0.000812832
-0.000711383
-0.000597243
-0.000472396
-0.000339743
-0.000202948
-6.61877e-05
-0.000523141
-0.000522519
-0.000521191
-0.000518983
-0.000515633
-0.000510777
-0.000503948
-0.000494588
-0.000482046
-0.000465631
-0.000444649
-0.000418468
-0.000386609
-0.000348827
-0.00030519
-0.000256148
-0.000202552
-0.000145645
-8.69906e-05
-2.83685e-05
-0.000221414
-0.000221146
-0.000220573
-0.000219625
-0.000218186
-0.000216102
-0.00021318
-0.000209177
-0.000203827
-0.000196836
-0.00018791
-0.000176792
-0.00016328
-0.000147276
-0.000128813
-0.000108083
-8.54497e-05
-6.14312e-05
-3.66875e-05
-1.19635e-05
-9.2198e-05
-9.20821e-05
-9.18385e-05
-9.14384e-05
-9.08312e-05
-8.99535e-05
-8.87252e-05
-8.70435e-05
-8.47999e-05
-8.18703e-05
-7.81357e-05
-7.34903e-05
-6.78534e-05
-6.11842e-05
-5.35001e-05
-4.48794e-05
-3.54731e-05
-2.54989e-05
-1.52268e-05
-4.96497e-06
-3.77789e-05
-3.77299e-05
-3.76289e-05
-3.74617e-05
-3.72095e-05
-3.68466e-05
-3.63381e-05
-3.56433e-05
-3.4717e-05
-3.35103e-05
-3.19741e-05
-3.00641e-05
-2.7751e-05
-2.50163e-05
-2.18692e-05
-1.83417e-05
-1.44944e-05
-1.04168e-05
-6.21942e-06
-2.02881e-06
-1.52347e-05
-1.52154e-05
-1.51741e-05
-1.51056e-05
-1.50018e-05
-1.48531e-05
-1.46454e-05
-1.43625e-05
-1.39872e-05
-1.34981e-05
-1.2878e-05
-1.21058e-05
-1.11724e-05
-1.00692e-05
-8.79966e-06
-7.37817e-06
-5.82962e-06
-4.18858e-06
-2.50078e-06
-8.15693e-07
-6.04189e-06
-6.03511e-06
-6.01919e-06
-5.99073e-06
-5.94837e-06
-5.88874e-06
-5.80658e-06
-5.69426e-06
-5.54281e-06
-5.34834e-06
-5.10253e-06
-4.79607e-06
-4.42439e-06
-3.98732e-06
-3.48385e-06
-2.92006e-06
-2.30562e-06
-1.65815e-06
-9.90351e-07
-3.22381e-07
-2.34611e-06
-2.34391e-06
-2.33679e-06
-2.32544e-06
-2.31037e-06
-2.28801e-06
-2.25548e-06
-2.21228e-06
-2.15096e-06
-2.07591e-06
-1.98019e-06
-1.86059e-06
-1.71541e-06
-1.54533e-06
-1.35e-06
-1.1313e-06
-8.9362e-07
-6.42051e-07
-3.83875e-07
-1.25022e-07
-8.60924e-07
-8.60924e-07
-8.57706e-07
-8.55503e-07
-8.5059e-07
-8.4212e-07
-8.29923e-07
-8.13999e-07
-7.92992e-07
-7.63685e-07
-7.26924e-07
-6.8237e-07
-6.29684e-07
-5.67004e-07
-4.95684e-07
-4.15554e-07
-3.28479e-07
-2.34459e-07
-1.40099e-07
-4.5401e-08
-2.14638e-07
-2.15485e-07
-2.14977e-07
-2.15146e-07
-2.13452e-07
-2.11419e-07
-2.0837e-07
-2.04982e-07
-2.00408e-07
-1.92446e-07
-1.81943e-07
-1.70762e-07
-1.57887e-07
-1.4264e-07
-1.24853e-07
-1.04524e-07
-8.21622e-08
-5.91229e-08
-3.47284e-08
-1.13502e-08
)
;

boundaryField
{
    topWall
    {
        type            calculated;
        value           uniform 0;
    }
    bottomWall
    {
        type            calculated;
        value           nonuniform List<scalar> 
20
(
-103184
-103186
-103191
-103201
-103217
-103246
-103293
-103373
-103505
-103725
-104091
-104703
-105734
-107500
-110606
-116321
-127647
-152843
-218659
-424838
)
;
    }
    sideWallL
    {
        type            symmetry;
    }
    sideWallR
    {
        type            calculated;
        value           nonuniform List<scalar> 
45
(
-268409
-74903.7
-27032
-12305.4
-6607.03
-3911.06
-2439.96
-1563.11
-1013.12
-658.425
-426.599
-274.475
-174.885
-110.127
-68.4332
-41.9161
-25.2846
-15.0109
-8.76614
-5.03382
-2.84152
-1.57644
-0.859449
-0.460403
-0.242334
-0.125327
-0.0636859
-0.0318002
-0.0156041
-0.00752503
-0.00356686
-0.00166197
-0.000761339
-0.000342934
-0.00015191
-6.61877e-05
-2.83685e-05
-1.19635e-05
-4.96497e-06
-2.02881e-06
-8.15693e-07
-3.22381e-07
-1.25022e-07
-4.5401e-08
-1.13502e-08
)
;
    }
    frontAndBack
    {
        type            empty;
    }
}


// ************************************************************************* //
