/*--------------------------------*- C++ -*----------------------------------*\
  =========                 |
  \\      /  F ield         | OpenFOAM: The Open Source CFD Toolbox
   \\    /   O peration     | Website:  https://openfoam.org
    \\  /    A nd           | Version:  7
     \\/     M anipulation  |
\*---------------------------------------------------------------------------*/
FoamFile
{
    version     2.0;
    format      ascii;
    class       volScalarField;
    location    "8";
    object      gradTx;
}
// * * * * * * * * * * * * * * * * * * * * * * * * * * * * * * * * * * * * * //

dimensions      [0 -1 0 1 0 0 0];

internalField   nonuniform List<scalar> 
900
(
-0.572458
-1.87873
-3.71195
-6.57685
-11.2477
-18.9658
-31.7566
-52.9556
-88.1119
-146.589
-244.543
-410.778
-699.186
-1217.81
-2205.29
-4260.38
-9130.38
-22752.9
-67998.9
-239126
-1.63627
-5.36726
-10.5941
-18.7443
-31.9987
-53.8356
-89.8953
-149.395
-247.505
-409.467
-677.954
-1126.8
-1887.83
-3206.05
-5558.68
-9920.98
-18356.4
-35181.7
-68097.2
-120488
-2.51702
-8.24836
-16.2509
-28.6773
-48.7896
-81.742
-135.795
-224.254
-368.607
-603.728
-986.615
-1611.4
-2635.54
-4325.69
-7136.4
-11833.6
-19634.3
-32129.4
-50013.4
-67905
-3.14181
-10.282
-20.2053
-35.5243
-60.1538
-100.198
-165.286
-270.623
-440.16
-711.526
-1143.66
-1828.59
-2908.94
-4602.56
-7231.02
-11233.7
-17103.6
-25076.7
-34251.2
-40993.9
-3.4791
-11.3669
-22.2666
-38.9718
-65.6123
-108.524
-177.513
-287.704
-462.237
-736.142
-1161.73
-1815.75
-2807.77
-4287.35
-6442.48
-9470.28
-13481.5
-18278.9
-22983.5
-25735.8
-3.53978
-11.5433
-22.5304
-39.2317
-65.621
-107.686
-174.497
-279.69
-443.474
-695.244
-1076.73
-1645.25
-2475.76
-3658.66
-5287.16
-7423.36
-10028.4
-12849.7
-15302
-16491.5
-3.36877
-10.9631
-21.3141
-36.9084
-61.3044
-99.7606
-160.064
-253.609
-396.729
-612.224
-930.808
-1391.87
-2042.26
-2930.91
-4095.55
-5537.36
-7180.93
-8827.11
-10129.9
-10662.1
-3.03096
-9.84252
-19.0571
-32.8097
-54.1027
-87.284
-138.644
-217.134
-335.163
-509.342
-760.88
-1115.1
-1599.13
-2236.52
-3037.09
-3981.19
-4999.8
-5958.44
-6661.99
-6903.47
-2.59647
-8.41304
-16.2212
-27.7638
-45.4479
-72.6894
-114.315
-177.005
-269.714
-403.94
-593.582
-854.029
-1199.9
-1640.82
-2174.78
-2779.32
-3402.83
-3960.86
-4345.48
-4454.4
-2.12859
-6.88183
-13.2135
-22.4839
-36.5391
-57.9454
-90.246
-138.213
-208.033
-307.327
-444.812
-629.387
-868.341
-1164.45
-1512.01
-1892.28
-2270.19
-2594.75
-2806.67
-2854.45
-1.67643
-5.40822
-10.3415
-17.4962
-28.233
-44.4056
-68.5158
-103.844
-154.509
-225.375
-321.706
-448.413
-608.793
-802.694
-1024.27
-1259.83
-1486.82
-1675.17
-1792.4
-1812.16
-1.27231
-4.09587
-7.80076
-13.1246
-21.0346
-32.8234
-50.1973
-75.3365
-110.893
-159.875
-225.351
-309.912
-414.835
-538.994
-677.657
-821.537
-956.637
-1065.53
-1130.43
-1137.67
-0.932833
-2.9969
-5.68579
-9.51533
-15.1509
-23.4654
-35.5865
-52.9201
-77.1246
-110.006
-153.3
-208.305
-275.369
-353.259
-438.554
-525.25
-604.896
-667.512
-703.365
-705.317
-0.662093
-2.12296
-4.01294
-6.68172
-10.5734
-16.2601
-24.4663
-36.0738
-52.0923
-73.5785
-101.485
-136.427
-178.375
-226.309
-277.918
-329.458
-375.935
-411.691
-431.414
-431.353
-0.455727
-1.45855
-2.74744
-4.55261
-7.16218
-10.9411
-16.3426
-23.9058
-34.2307
-47.9208
-65.4842
-87.1917
-112.899
-141.86
-172.588
-202.816
-229.641
-249.89
-260.673
-260.016
-0.304662
-0.973362
-1.82745
-3.01442
-4.71628
-7.15989
-10.6219
-15.4242
-21.9153
-30.4322
-41.2387
-54.4409
-69.8885
-87.0773
-105.084
-122.568
-137.87
-149.229
-155.079
-154.383
-0.198074
-0.631781
-1.18246
-1.94217
-3.02304
-4.5627
-6.72607
-9.70119
-13.6863
-18.8654
-25.3718
-33.2388
-42.3463
-52.3706
-62.7561
-72.7264
-81.3481
-87.6527
-90.799
-90.242
-0.125381
-0.399296
-0.745153
-1.219
-1.88828
-2.83456
-4.15404
-5.95423
-8.3456
-11.4268
-15.2629
-19.8588
-25.1292
-30.8748
-36.7701
-42.3739
-47.1688
-50.6283
-52.3034
-51.9098
-0.0773511
-0.245978
-0.45778
-0.746079
-1.1505
-1.71836
-2.50456
-3.56935
-4.97312
-6.76768
-8.98398
-11.6173
-14.6119
-17.8489
-21.1421
-24.2455
-26.8762
-28.7514
-29.6336
-29.3754
-0.04655
-0.147828
-0.274411
-0.445661
-0.684355
-1.01734
-1.47534
-2.09145
-2.89808
-3.92193
-5.1772
-6.65764
-8.32864
-10.1214
-11.9316
-13.6245
-15.0477
-16.051
-16.5103
-16.3496
-0.0273488
-0.0867399
-0.160628
-0.260015
-0.397715
-0.588655
-0.849675
-1.19863
-1.6526
-2.22508
-2.92235
-3.73923
-4.6551
-5.63117
-6.61019
-7.51957
-8.27845
-8.80817
-9.04436
-8.94833
-0.0156976
-0.049727
-0.0918797
-0.148274
-0.22597
-0.3331
-0.478722
-0.67229
-0.922644
-1.2365
-1.61648
-2.05897
-2.55211
-3.07456
-3.59547
-4.07642
-4.47514
-4.75092
-4.87084
-4.81537
-0.00880807
-0.0278712
-0.051389
-0.0826936
-0.125596
-0.184441
-0.264011
-0.36922
-0.504566
-0.673327
-0.876538
-1.1119
-1.37279
-1.6477
-1.92036
-2.17075
-2.3771
-2.51864
-2.57873
-2.54762
-0.00483437
-0.0152813
-0.0281204
-0.0451296
-0.0683256
-0.0999857
-0.142587
-0.198641
-0.270399
-0.35943
-0.466106
-0.589052
-0.724672
-0.866898
-1.00729
-1.13559
-1.24076
-1.31235
-1.34205
-1.32506
-0.00259683
-0.00820043
-0.0150626
-0.0241132
-0.0363988
-0.0530907
-0.0754494
-0.104736
-0.142056
-0.188152
-0.243135
-0.30622
-0.375503
-0.447846
-0.518951
-0.58365
-0.636424
-0.672096
-0.686577
-0.677525
-0.00136586
-0.00430923
-0.00790164
-0.0126199
-0.0189969
-0.027624
-0.0391313
-0.0541407
-0.0731883
-0.0966166
-0.124447
-0.156248
-0.191034
-0.227214
-0.262638
-0.294743
-0.320816
-0.338325
-0.345285
-0.340571
-0.000703759
-0.00221843
-0.00406128
-0.00647215
-0.0097174
-0.0140901
-0.0198998
-0.0274482
-0.0369904
-0.0486824
-0.0625186
-0.0782704
-0.0954377
-0.11323
-0.130589
-0.146266
-0.158945
-0.167409
-0.170707
-0.168305
-0.000355373
-0.00111932
-0.00204605
-0.00325396
-0.0048737
-0.00704802
-0.00992623
-0.0136523
-0.0183459
-0.0240765
-0.0308344
-0.0385019
-0.0468306
-0.0554345
-0.0638022
-0.0713344
-0.077404
-0.0814332
-0.0829734
-0.0817749
-0.000175939
-0.000553736
-0.00101076
-0.00160438
-0.00239754
-0.00345853
-0.00485818
-0.00666405
-0.00893126
-0.0116904
-0.0149338
-0.0186021
-0.0225748
-0.0266665
-0.0306343
-0.0341953
-0.0370551
-0.0389437
-0.0396526
-0.0390665
-8.54299e-05
-0.000268686
-0.000489797
-0.000776051
-0.00115724
-0.00166545
-0.00233374
-0.00319328
-0.00426907
-0.00557434
-0.00710416
-0.00882944
-0.0106926
-0.0126064
-0.0144573
-0.0161139
-0.0174402
-0.0183118
-0.0186334
-0.0183523
-4.06996e-05
-0.000127919
-0.000232899
-0.000368389
-0.000548233
-0.000787269
-0.00110065
-0.00150253
-0.00200408
-0.00261091
-0.00332019
-0.00411797
-0.00497728
-0.00585775
-0.0067072
-0.00746557
-0.00807097
-0.00846708
-0.00861077
-0.00847851
-1.90294e-05
-5.97749e-05
-0.000108706
-0.00017167
-0.000254994
-0.000365421
-0.000509784
-0.000694407
-0.000924205
-0.00120151
-0.00152481
-0.00188756
-0.00227736
-0.00267583
-0.0030594
-0.00340106
-0.00367307
-0.00385031
-0.00391358
-0.0038525
-8.7363e-06
-2.74239e-05
-4.98184e-05
-7.85579e-05
-0.000116479
-0.000166597
-0.000231943
-0.000315299
-0.000418793
-0.000543378
-0.000688285
-0.0008505
-0.00102443
-0.00120185
-0.00137228
-0.00152377
-0.00164408
-0.00172216
-0.00174961
-0.00172191
-3.93904e-06
-1.23572e-05
-2.24242e-05
-3.53103e-05
-5.22663e-05
-7.46204e-05
-0.000103693
-0.000140688
-0.000186515
-0.000241552
-0.000305429
-0.000376783
-0.000453132
-0.000530864
-0.000605387
-0.000671496
-0.000723878
-0.000757751
-0.00076949
-0.000757146
-1.74336e-06
-5.46861e-06
-9.91605e-06
-1.5594e-05
-2.30466e-05
-3.28464e-05
-4.55617e-05
-6.17062e-05
-8.16586e-05
-0.000105571
-0.000133269
-0.000164147
-0.000197126
-0.000230639
-0.000262711
-0.000291109
-0.000313563
-0.000328034
-0.00033298
-0.000327578
-7.59789e-07
-2.37881e-06
-4.30852e-06
-6.76796e-06
-9.9877e-06
-1.42124e-05
-1.96808e-05
-2.66082e-05
-3.51531e-05
-4.5373e-05
-5.71893e-05
-7.03381e-05
-8.43547e-05
-9.85762e-05
-0.000112163
-0.000124173
-0.00013365
-0.000139738
-0.000141792
-0.000139468
-3.24752e-07
-1.0161e-06
-1.83891e-06
-2.88703e-06
-4.25549e-06
-6.04561e-06
-8.3592e-06
-1.12837e-05
-1.4881e-05
-1.91802e-05
-2.41408e-05
-2.96506e-05
-3.55159e-05
-4.14555e-05
-4.71221e-05
-5.21225e-05
-5.60622e-05
-5.85855e-05
-5.94248e-05
-5.84424e-05
-1.37558e-07
-4.28599e-07
-7.71647e-07
-1.21024e-06
-1.78182e-06
-2.52839e-06
-3.49181e-06
-4.70527e-06
-6.19588e-06
-7.976e-06
-1.00267e-05
-1.22989e-05
-1.47136e-05
-1.71565e-05
-1.94836e-05
-2.15355e-05
-2.31474e-05
-2.41767e-05
-2.45157e-05
-2.41088e-05
-5.74288e-08
-1.76013e-07
-3.17468e-07
-4.99072e-07
-7.33192e-07
-1.04033e-06
-1.4342e-06
-1.9309e-06
-2.53957e-06
-3.26243e-06
-4.09642e-06
-5.0207e-06
-5.99953e-06
-6.98887e-06
-7.92992e-06
-8.75934e-06
-9.40986e-06
-9.82372e-06
-9.95704e-06
-9.79119e-06
-2.1684e-08
-6.89485e-08
-1.28241e-07
-2.0261e-07
-2.97309e-07
-4.22161e-07
-5.81403e-07
-7.79948e-07
-1.02288e-06
-1.31188e-06
-1.64646e-06
-2.01662e-06
-2.40778e-06
-2.80368e-06
-3.17858e-06
-3.50807e-06
-3.76709e-06
-3.93006e-06
-3.9819e-06
-3.91685e-06
-8.30092e-09
-2.59192e-08
-4.94667e-08
-7.97905e-08
-1.18246e-07
-1.68898e-07
-2.31071e-07
-3.10014e-07
-4.06406e-07
-5.1957e-07
-6.50352e-07
-7.97397e-07
-9.51896e-07
-1.10639e-06
-1.25547e-06
-1.3849e-06
-1.48519e-06
-1.54838e-06
-1.56854e-06
-1.54363e-06
-2.5411e-09
-8.47033e-09
-1.84653e-08
-3.04932e-08
-4.43845e-08
-6.55604e-08
-9.09713e-08
-1.21465e-07
-1.58565e-07
-2.03119e-07
-2.53602e-07
-3.10861e-07
-3.71509e-07
-4.30801e-07
-4.8806e-07
-5.38035e-07
-5.77168e-07
-6.01732e-07
-6.08847e-07
-6.00208e-07
-1.35525e-09
-2.87991e-09
-4.57398e-09
-9.31736e-09
-1.67713e-08
-2.67662e-08
-3.64224e-08
-4.6248e-08
-6.06476e-08
-7.92823e-08
-9.7917e-08
-1.1977e-07
-1.42979e-07
-1.6568e-07
-1.88041e-07
-2.06676e-07
-2.23447e-07
-2.32765e-07
-2.33103e-07
-2.30732e-07
-1.69407e-10
6.77626e-10
0
-3.72694e-09
-6.77626e-09
-1.11808e-08
-1.50772e-08
-1.72795e-08
-2.21923e-08
-3.18484e-08
-3.82859e-08
-4.64174e-08
-5.59042e-08
-6.53909e-08
-7.42001e-08
-8.1654e-08
-8.80914e-08
-9.19878e-08
-9.18184e-08
-9.13102e-08
-1.35525e-09
5.0822e-10
3.38813e-10
-2.37169e-09
-3.04932e-09
-5.92923e-09
-8.63974e-09
-8.97855e-09
-1.03338e-08
-1.33831e-08
-1.67713e-08
-2.20229e-08
-2.79521e-08
-3.20178e-08
-3.60836e-08
-3.93023e-08
-4.23516e-08
-4.45539e-08
-4.40457e-08
-4.52316e-08
)
;

boundaryField
{
    topWall
    {
        type            calculated;
        value           nonuniform List<scalar> 
20
(
-1.35525e-09
5.0822e-10
3.38813e-10
-2.37169e-09
-3.04932e-09
-5.92923e-09
-8.63974e-09
-8.97855e-09
-1.03338e-08
-1.33831e-08
-1.67713e-08
-2.20229e-08
-2.79521e-08
-3.20178e-08
-3.60836e-08
-3.93023e-08
-4.23516e-08
-4.45539e-08
-4.40457e-08
-4.52316e-08
)
;
    }
    bottomWall
    {
        type            calculated;
        value           nonuniform List<scalar> 
20
(
-0.572458
-1.87873
-3.71195
-6.57685
-11.2477
-18.9658
-31.7566
-52.9556
-88.1119
-146.589
-244.543
-410.778
-699.186
-1217.81
-2205.29
-4260.38
-9130.38
-22752.9
-67998.9
-239126
)
;
    }
    sideWallL
    {
        type            symmetry;
    }
    sideWallR
    {
        type            calculated;
        value           nonuniform List<scalar> 
45
(
-375162
-151200
-75546.9
-43072.4
-26325.4
-16644.3
-10681.2
-6884.47
-4428.77
-2831.98
-1795.07
-1125.59
-697.165
-426.044
-256.657
-152.311
-88.9931
-51.173
-28.9496
-16.1084
-8.81434
-4.74235
-2.50856
-1.30455
-0.666951
-0.335217
-0.165643
-0.080474
-0.038442
-0.0180576
-0.00834186
-0.00379019
-0.00169397
-0.000744831
-0.000322237
-0.000137189
-5.74875e-05
-2.37145e-05
-9.63325e-06
-3.85398e-06
-1.51942e-06
-5.91172e-07
-2.29079e-07
-9.15179e-08
-4.66116e-08
)
;
    }
    frontAndBack
    {
        type            empty;
    }
}


// ************************************************************************* //
