/*--------------------------------*- C++ -*----------------------------------*\
  =========                 |
  \\      /  F ield         | OpenFOAM: The Open Source CFD Toolbox
   \\    /   O peration     | Website:  https://openfoam.org
    \\  /    A nd           | Version:  7
     \\/     M anipulation  |
\*---------------------------------------------------------------------------*/
FoamFile
{
    version     2.0;
    format      ascii;
    class       volScalarField;
    location    "8";
    object      rhoc;
}
// * * * * * * * * * * * * * * * * * * * * * * * * * * * * * * * * * * * * * //

dimensions      [1 -3 0 0 0 0 0];

internalField   nonuniform List<scalar> 
900
(
1.27218e-22
1.27213e-22
1.27201e-22
1.27179e-22
1.27141e-22
1.27073e-22
1.26958e-22
1.26759e-22
1.26421e-22
1.25847e-22
1.24874e-22
1.23227e-22
1.20441e-22
1.15719e-22
1.07701e-22
9.4122e-23
7.1679e-23
3.85907e-23
7.28694e-24
2.84061e-26
1.44336e-24
1.44319e-24
1.44279e-24
1.44204e-24
1.4407e-24
1.43839e-24
1.43442e-24
1.42764e-24
1.41616e-24
1.39688e-24
1.36477e-24
1.31195e-24
1.22659e-24
1.09258e-24
8.92772e-25
6.22333e-25
3.19672e-25
8.87954e-26
6.88632e-27
4.84308e-29
3.24877e-26
3.24816e-26
3.24674e-26
3.24407e-26
3.23937e-26
3.23121e-26
3.21727e-26
3.19362e-26
3.15393e-26
3.08809e-26
2.98055e-26
2.8087e-26
2.54298e-26
2.15302e-26
1.6278e-26
1.01557e-26
4.57088e-27
1.19367e-27
1.35972e-28
6.68423e-30
1.49092e-27
1.49058e-27
1.48978e-27
1.4883e-27
1.48567e-27
1.48115e-27
1.47344e-27
1.46047e-27
1.43888e-27
1.40351e-27
1.34672e-27
1.25814e-27
1.1256e-27
9.39483e-28
7.02356e-28
4.42356e-28
2.15444e-28
7.35656e-29
1.68854e-29
3.16147e-30
1.39204e-28
1.39171e-28
1.39095e-28
1.38955e-28
1.38707e-28
1.38281e-28
1.37559e-28
1.36351e-28
1.34357e-28
1.31126e-28
1.26007e-28
1.1815e-28
1.06613e-28
9.07185e-29
7.07417e-29
4.87166e-29
2.84585e-29
1.37494e-29
5.65514e-30
2.24432e-30
2.54634e-29
2.54582e-29
2.54462e-29
2.54238e-29
2.53845e-29
2.53174e-29
2.52041e-29
2.50157e-29
2.47073e-29
2.42114e-29
2.34332e-29
2.22498e-29
2.05252e-29
1.81526e-29
1.5135e-29
1.16778e-29
8.21467e-30
5.26361e-30
3.15571e-30
1.88029e-30
8.28735e-30
8.28604e-30
8.28303e-30
8.27745e-30
8.26769e-30
8.25106e-30
8.22319e-30
8.17711e-30
8.10218e-30
7.98262e-30
7.79637e-30
7.51482e-30
7.10537e-30
6.53912e-30
5.80505e-30
4.92819e-30
3.98031e-30
3.06736e-30
2.29051e-30
1.70492e-30
4.13586e-30
4.13539e-30
4.13432e-30
4.13234e-30
4.12889e-30
4.12304e-30
4.11329e-30
4.09729e-30
4.07147e-30
4.03058e-30
3.96736e-30
3.87234e-30
3.73448e-30
3.54307e-30
3.29131e-30
2.9813e-30
2.62818e-30
2.26006e-30
1.91132e-30
1.61168e-30
2.72798e-30
2.72776e-30
2.72727e-30
2.72637e-30
2.72481e-30
2.72218e-30
2.71782e-30
2.71073e-30
2.69938e-30
2.68157e-30
2.65426e-30
2.61351e-30
2.55468e-30
2.47304e-30
2.36494e-30
2.22956e-30
2.07061e-30
1.89705e-30
1.72198e-30
1.55944e-30
2.1311e-30
2.13098e-30
2.13072e-30
2.13024e-30
2.12941e-30
2.12802e-30
2.12575e-30
2.12208e-30
2.11625e-30
2.1072e-30
2.09345e-30
2.07313e-30
2.044e-30
2.00377e-30
1.95051e-30
1.88338e-30
1.80337e-30
1.71383e-30
1.62026e-30
1.52935e-30
1.84027e-30
1.8402e-30
1.84005e-30
1.83977e-30
1.83929e-30
1.83848e-30
1.83718e-30
1.83509e-30
1.83181e-30
1.82677e-30
1.8192e-30
1.80811e-30
1.79237e-30
1.7708e-30
1.74237e-30
1.70655e-30
1.66365e-30
1.61508e-30
1.56336e-30
1.51179e-30
1.68626e-30
1.68622e-30
1.68612e-30
1.68595e-30
1.68565e-30
1.68516e-30
1.68438e-30
1.68313e-30
1.68119e-30
1.67824e-30
1.67385e-30
1.6675e-30
1.65858e-30
1.64647e-30
1.63062e-30
1.61074e-30
1.58695e-30
1.55992e-30
1.53089e-30
1.50151e-30
1.60074e-30
1.60071e-30
1.60065e-30
1.60054e-30
1.60035e-30
1.60005e-30
1.59956e-30
1.5988e-30
1.59763e-30
1.59586e-30
1.59326e-30
1.58954e-30
1.58437e-30
1.57741e-30
1.5684e-30
1.55716e-30
1.54377e-30
1.52857e-30
1.5122e-30
1.49551e-30
1.55207e-30
1.55206e-30
1.55202e-30
1.55195e-30
1.55183e-30
1.55164e-30
1.55134e-30
1.55087e-30
1.55015e-30
1.54909e-30
1.54754e-30
1.54534e-30
1.54233e-30
1.53831e-30
1.53315e-30
1.52677e-30
1.51921e-30
1.51065e-30
1.50144e-30
1.49202e-30
1.52412e-30
1.52411e-30
1.52408e-30
1.52404e-30
1.52396e-30
1.52384e-30
1.52366e-30
1.52337e-30
1.52294e-30
1.5223e-30
1.52138e-30
1.52009e-30
1.51833e-30
1.51602e-30
1.51308e-30
1.50947e-30
1.50521e-30
1.50042e-30
1.49528e-30
1.49001e-30
1.50806e-30
1.50805e-30
1.50804e-30
1.50801e-30
1.50796e-30
1.50789e-30
1.50778e-30
1.5076e-30
1.50734e-30
1.50696e-30
1.50642e-30
1.50567e-30
1.50466e-30
1.50334e-30
1.50168e-30
1.49965e-30
1.49728e-30
1.49463e-30
1.49178e-30
1.48887e-30
1.49889e-30
1.49889e-30
1.49888e-30
1.49886e-30
1.49883e-30
1.49879e-30
1.49872e-30
1.49862e-30
1.49847e-30
1.49825e-30
1.49793e-30
1.4975e-30
1.49693e-30
1.49619e-30
1.49525e-30
1.49413e-30
1.49283e-30
1.49137e-30
1.48981e-30
1.48822e-30
1.49372e-30
1.49371e-30
1.49371e-30
1.4937e-30
1.49368e-30
1.49365e-30
1.49362e-30
1.49355e-30
1.49347e-30
1.49334e-30
1.49316e-30
1.49292e-30
1.4926e-30
1.49219e-30
1.49167e-30
1.49106e-30
1.49035e-30
1.48956e-30
1.48872e-30
1.48787e-30
1.49083e-30
1.49083e-30
1.49083e-30
1.49082e-30
1.49081e-30
1.49079e-30
1.49077e-30
1.49074e-30
1.49069e-30
1.49062e-30
1.49052e-30
1.49038e-30
1.49021e-30
1.48998e-30
1.4897e-30
1.48937e-30
1.48899e-30
1.48857e-30
1.48812e-30
1.48767e-30
1.48925e-30
1.48924e-30
1.48924e-30
1.48924e-30
1.48923e-30
1.48922e-30
1.48921e-30
1.48919e-30
1.48916e-30
1.48913e-30
1.48907e-30
1.489e-30
1.4889e-30
1.48878e-30
1.48863e-30
1.48846e-30
1.48826e-30
1.48804e-30
1.4878e-30
1.48757e-30
1.48839e-30
1.48839e-30
1.48839e-30
1.48838e-30
1.48838e-30
1.48838e-30
1.48837e-30
1.48836e-30
1.48834e-30
1.48832e-30
1.48829e-30
1.48825e-30
1.4882e-30
1.48814e-30
1.48806e-30
1.48797e-30
1.48787e-30
1.48775e-30
1.48763e-30
1.48751e-30
1.48793e-30
1.48793e-30
1.48793e-30
1.48793e-30
1.48793e-30
1.48793e-30
1.48792e-30
1.48792e-30
1.48791e-30
1.4879e-30
1.48788e-30
1.48786e-30
1.48783e-30
1.4878e-30
1.48776e-30
1.48771e-30
1.48766e-30
1.4876e-30
1.48754e-30
1.48748e-30
1.48769e-30
1.48769e-30
1.48769e-30
1.48769e-30
1.48769e-30
1.48769e-30
1.48769e-30
1.48769e-30
1.48768e-30
1.48768e-30
1.48767e-30
1.48766e-30
1.48764e-30
1.48763e-30
1.48761e-30
1.48758e-30
1.48756e-30
1.48753e-30
1.4875e-30
1.48746e-30
1.48757e-30
1.48757e-30
1.48757e-30
1.48757e-30
1.48757e-30
1.48757e-30
1.48757e-30
1.48757e-30
1.48756e-30
1.48756e-30
1.48756e-30
1.48755e-30
1.48755e-30
1.48754e-30
1.48753e-30
1.48752e-30
1.4875e-30
1.48749e-30
1.48747e-30
1.48746e-30
1.48751e-30
1.48751e-30
1.48751e-30
1.48751e-30
1.48751e-30
1.48751e-30
1.48751e-30
1.48751e-30
1.48751e-30
1.4875e-30
1.4875e-30
1.4875e-30
1.4875e-30
1.48749e-30
1.48749e-30
1.48748e-30
1.48747e-30
1.48747e-30
1.48746e-30
1.48745e-30
1.48748e-30
1.48748e-30
1.48748e-30
1.48748e-30
1.48748e-30
1.48748e-30
1.48748e-30
1.48748e-30
1.48748e-30
1.48748e-30
1.48747e-30
1.48747e-30
1.48747e-30
1.48747e-30
1.48747e-30
1.48746e-30
1.48746e-30
1.48746e-30
1.48745e-30
1.48745e-30
1.48746e-30
1.48746e-30
1.48746e-30
1.48746e-30
1.48746e-30
1.48746e-30
1.48746e-30
1.48746e-30
1.48746e-30
1.48746e-30
1.48746e-30
1.48746e-30
1.48746e-30
1.48746e-30
1.48746e-30
1.48746e-30
1.48746e-30
1.48745e-30
1.48745e-30
1.48745e-30
1.48746e-30
1.48746e-30
1.48746e-30
1.48746e-30
1.48746e-30
1.48746e-30
1.48746e-30
1.48746e-30
1.48746e-30
1.48746e-30
1.48746e-30
1.48745e-30
1.48745e-30
1.48745e-30
1.48745e-30
1.48745e-30
1.48745e-30
1.48745e-30
1.48745e-30
1.48745e-30
1.48745e-30
1.48745e-30
1.48745e-30
1.48745e-30
1.48745e-30
1.48745e-30
1.48745e-30
1.48745e-30
1.48745e-30
1.48745e-30
1.48745e-30
1.48745e-30
1.48745e-30
1.48745e-30
1.48745e-30
1.48745e-30
1.48745e-30
1.48745e-30
1.48745e-30
1.48745e-30
1.48745e-30
1.48745e-30
1.48745e-30
1.48745e-30
1.48745e-30
1.48745e-30
1.48745e-30
1.48745e-30
1.48745e-30
1.48745e-30
1.48745e-30
1.48745e-30
1.48745e-30
1.48745e-30
1.48745e-30
1.48745e-30
1.48745e-30
1.48745e-30
1.48745e-30
1.48745e-30
1.48745e-30
1.48745e-30
1.48745e-30
1.48745e-30
1.48745e-30
1.48745e-30
1.48745e-30
1.48745e-30
1.48745e-30
1.48745e-30
1.48745e-30
1.48745e-30
1.48745e-30
1.48745e-30
1.48745e-30
1.48745e-30
1.48745e-30
1.48745e-30
1.48745e-30
1.48745e-30
1.48745e-30
1.48745e-30
1.48745e-30
1.48745e-30
1.48745e-30
1.48745e-30
1.48745e-30
1.48745e-30
1.48745e-30
1.48745e-30
1.48745e-30
1.48745e-30
1.48745e-30
1.48745e-30
1.48745e-30
1.48745e-30
1.48745e-30
1.48745e-30
1.48745e-30
1.48745e-30
1.48745e-30
1.48745e-30
1.48745e-30
1.48745e-30
1.48745e-30
1.48745e-30
1.48745e-30
1.48745e-30
1.48745e-30
1.48745e-30
1.48745e-30
1.48745e-30
1.48745e-30
1.48745e-30
1.48745e-30
1.48745e-30
1.48745e-30
1.48745e-30
1.48745e-30
1.48745e-30
1.48745e-30
1.48745e-30
1.48745e-30
1.48745e-30
1.48745e-30
1.48745e-30
1.48745e-30
1.48745e-30
1.48745e-30
1.48745e-30
1.48745e-30
1.48745e-30
1.48745e-30
1.48745e-30
1.48745e-30
1.48745e-30
1.48745e-30
1.48745e-30
1.48745e-30
1.48745e-30
1.48745e-30
1.48745e-30
1.48745e-30
1.48745e-30
1.48745e-30
1.48745e-30
1.48745e-30
1.48745e-30
1.48745e-30
1.48745e-30
1.48745e-30
1.48745e-30
1.48745e-30
1.48745e-30
1.48745e-30
1.48745e-30
1.48745e-30
1.48745e-30
1.48745e-30
1.48745e-30
1.48745e-30
1.48745e-30
1.48745e-30
1.48745e-30
1.48745e-30
1.48745e-30
1.48745e-30
1.48745e-30
1.48745e-30
1.48745e-30
1.48745e-30
1.48745e-30
1.48745e-30
1.48745e-30
1.48745e-30
1.48745e-30
1.48745e-30
1.48745e-30
1.48745e-30
1.48745e-30
1.48745e-30
1.48745e-30
1.48745e-30
1.48745e-30
1.48745e-30
1.48745e-30
1.48745e-30
1.48745e-30
1.48745e-30
1.48745e-30
1.48745e-30
1.48745e-30
1.48745e-30
1.48745e-30
1.48745e-30
1.48745e-30
1.48745e-30
1.48745e-30
1.48745e-30
1.48745e-30
1.48745e-30
1.48745e-30
1.48745e-30
1.48745e-30
1.48745e-30
1.48745e-30
1.48745e-30
1.48745e-30
1.48745e-30
1.48745e-30
1.48745e-30
1.48745e-30
1.48745e-30
1.48745e-30
1.48745e-30
1.48745e-30
1.48745e-30
1.48745e-30
1.48745e-30
1.48745e-30
1.48745e-30
1.48745e-30
1.48745e-30
1.48745e-30
1.48745e-30
1.48745e-30
1.48745e-30
1.48745e-30
1.48745e-30
1.48745e-30
1.48745e-30
1.48745e-30
1.48745e-30
1.48745e-30
1.48745e-30
1.48745e-30
1.48745e-30
1.48745e-30
1.48745e-30
1.48745e-30
1.48745e-30
1.48745e-30
1.48745e-30
1.48745e-30
1.48745e-30
1.48745e-30
1.48745e-30
1.48745e-30
1.48745e-30
1.48745e-30
1.48745e-30
1.48745e-30
1.48745e-30
1.48745e-30
1.48745e-30
1.48745e-30
1.48745e-30
1.48745e-30
1.48745e-30
1.48745e-30
1.48745e-30
1.48745e-30
1.48745e-30
1.48745e-30
1.48745e-30
1.48745e-30
1.48745e-30
1.48745e-30
1.48745e-30
1.48745e-30
1.48745e-30
1.48745e-30
1.48745e-30
1.48745e-30
1.48745e-30
1.48745e-30
1.48745e-30
1.48745e-30
1.48745e-30
1.48745e-30
1.48745e-30
1.48745e-30
1.48745e-30
1.48745e-30
1.48745e-30
1.48745e-30
1.48745e-30
1.48745e-30
1.48745e-30
1.48745e-30
1.48745e-30
1.48745e-30
1.48745e-30
1.48745e-30
1.48745e-30
1.48745e-30
1.48745e-30
1.48745e-30
1.48745e-30
1.48745e-30
1.48745e-30
1.48745e-30
1.48745e-30
1.48745e-30
1.48745e-30
1.48745e-30
1.48745e-30
1.48745e-30
1.48745e-30
1.48745e-30
1.48745e-30
1.48745e-30
1.48745e-30
1.48745e-30
1.48745e-30
1.48745e-30
1.48745e-30
1.48745e-30
1.48745e-30
1.48745e-30
1.48745e-30
1.48745e-30
1.48745e-30
1.48745e-30
1.48745e-30
1.48745e-30
1.48745e-30
1.48745e-30
1.48745e-30
1.48745e-30
1.48745e-30
1.48745e-30
1.48745e-30
1.48745e-30
1.48745e-30
1.48745e-30
1.48745e-30
1.48745e-30
1.48745e-30
1.48745e-30
1.48745e-30
1.48745e-30
1.48745e-30
1.48745e-30
1.48745e-30
1.48745e-30
1.48745e-30
1.48745e-30
1.48745e-30
1.48745e-30
1.48745e-30
1.48745e-30
1.48745e-30
1.48745e-30
1.48745e-30
1.48745e-30
1.48745e-30
1.48745e-30
1.48745e-30
1.48745e-30
)
;

boundaryField
{
    topWall
    {
        type            zeroGradient;
    }
    bottomWall
    {
        type            zeroGradient;
    }
    sideWallL
    {
        type            symmetry;
    }
    sideWallR
    {
        type            zeroGradient;
    }
    frontAndBack
    {
        type            empty;
    }
}


// ************************************************************************* //
