/*--------------------------------*- C++ -*----------------------------------*\
  =========                 |
  \\      /  F ield         | OpenFOAM: The Open Source CFD Toolbox
   \\    /   O peration     | Website:  https://openfoam.org
    \\  /    A nd           | Version:  7
     \\/     M anipulation  |
\*---------------------------------------------------------------------------*/
FoamFile
{
    version     2.0;
    format      ascii;
    class       volScalarField;
    location    "8";
    object      rhog;
}
// * * * * * * * * * * * * * * * * * * * * * * * * * * * * * * * * * * * * * //

dimensions      [1 -3 0 0 0 0 0];

internalField   nonuniform List<scalar> 
900
(
1.53104e-11
1.531e-11
1.53091e-11
1.53075e-11
1.53046e-11
1.52995e-11
1.52909e-11
1.52761e-11
1.5251e-11
1.52084e-11
1.51364e-11
1.50144e-11
1.48072e-11
1.44527e-11
1.38393e-11
1.27599e-11
1.08325e-11
7.46957e-12
2.74571e-12
9.64449e-14
1.06821e-12
1.06812e-12
1.06794e-12
1.06758e-12
1.06696e-12
1.06589e-12
1.06404e-12
1.06091e-12
1.0556e-12
1.04669e-12
1.0318e-12
1.0071e-12
9.66475e-13
9.00609e-13
7.96466e-13
6.3976e-13
4.27162e-13
1.96438e-13
4.14431e-14
1.93582e-15
1.10431e-13
1.10417e-13
1.10386e-13
1.10329e-13
1.10226e-13
1.1005e-13
1.09749e-13
1.09241e-13
1.08387e-13
1.06968e-13
1.04634e-13
1.0085e-13
9.48428e-14
8.55974e-14
7.20797e-14
5.39597e-14
3.30608e-14
1.4473e-14
3.75942e-15
5.57019e-16
1.72028e-14
1.72002e-14
1.71942e-14
1.7183e-14
1.71633e-14
1.71296e-14
1.70722e-14
1.69758e-14
1.68154e-14
1.65518e-14
1.61253e-14
1.54491e-14
1.44069e-14
1.28664e-14
1.07291e-14
8.03959e-15
5.1268e-15
2.60791e-15
1.02148e-15
3.45781e-16
4.02943e-15
4.02879e-15
4.02732e-15
4.0246e-15
4.01981e-15
4.01163e-15
3.9978e-15
3.97471e-15
3.93665e-15
3.87481e-15
3.77618e-15
3.62259e-15
3.39108e-15
3.05765e-15
2.6075e-15
2.0532e-15
1.45329e-15
9.0761e-16
5.08177e-16
2.77673e-16
1.38991e-15
1.38972e-15
1.38926e-15
1.38841e-15
1.38694e-15
1.38442e-15
1.38019e-15
1.37318e-15
1.36172e-15
1.34328e-15
1.31424e-15
1.26964e-15
1.20343e-15
1.10945e-15
9.83846e-16
8.28904e-16
6.56755e-16
4.88895e-16
3.48281e-16
2.47833e-16
6.73156e-16
6.7308e-16
6.72905e-16
6.72581e-16
6.72017e-16
6.7106e-16
6.69461e-16
6.6683e-16
6.62563e-16
6.55765e-16
6.45165e-16
6.29068e-16
6.05423e-16
5.72128e-16
5.27708e-16
4.72359e-16
4.08973e-16
3.43318e-16
2.82584e-16
2.32684e-16
4.24397e-16
4.24362e-16
4.24282e-16
4.24135e-16
4.23878e-16
4.23446e-16
4.22728e-16
4.21555e-16
4.19668e-16
4.16689e-16
4.12089e-16
4.0517e-16
3.95094e-16
3.80987e-16
3.62169e-16
3.38497e-16
3.10735e-16
2.80709e-16
2.51033e-16
2.2438e-16
3.20584e-16
3.20565e-16
3.20524e-16
3.20447e-16
3.20314e-16
3.20092e-16
3.19725e-16
3.19129e-16
3.1818e-16
3.16694e-16
3.14423e-16
3.11038e-16
3.06151e-16
2.9935e-16
2.90294e-16
2.78843e-16
2.65212e-16
2.50063e-16
2.34457e-16
2.19639e-16
2.71235e-16
2.71225e-16
2.71201e-16
2.71157e-16
2.71081e-16
2.70956e-16
2.7075e-16
2.7042e-16
2.69897e-16
2.69087e-16
2.67861e-16
2.66051e-16
2.63463e-16
2.59887e-16
2.55146e-16
2.49148e-16
2.41959e-16
2.33848e-16
2.25286e-16
2.16875e-16
2.45641e-16
2.45634e-16
2.4562e-16
2.45593e-16
2.45548e-16
2.45473e-16
2.45351e-16
2.45156e-16
2.44851e-16
2.44384e-16
2.43683e-16
2.4266e-16
2.41211e-16
2.39227e-16
2.36613e-16
2.33317e-16
2.29362e-16
2.2487e-16
2.20065e-16
2.15248e-16
2.31613e-16
2.31609e-16
2.316e-16
2.31583e-16
2.31555e-16
2.31508e-16
2.31434e-16
2.31315e-16
2.31132e-16
2.30853e-16
2.3044e-16
2.29843e-16
2.29006e-16
2.27871e-16
2.26388e-16
2.24529e-16
2.22304e-16
2.19774e-16
2.1705e-16
2.14289e-16
2.23672e-16
2.2367e-16
2.23664e-16
2.23653e-16
2.23635e-16
2.23606e-16
2.23559e-16
2.23486e-16
2.23374e-16
2.23206e-16
2.22958e-16
2.22605e-16
2.22115e-16
2.21457e-16
2.20605e-16
2.19545e-16
2.18282e-16
2.16848e-16
2.15303e-16
2.13726e-16
2.19103e-16
2.19101e-16
2.19097e-16
2.19091e-16
2.19079e-16
2.19061e-16
2.19032e-16
2.18987e-16
2.18918e-16
2.18816e-16
2.18668e-16
2.18458e-16
2.18171e-16
2.17788e-16
2.17298e-16
2.16692e-16
2.15975e-16
2.15164e-16
2.14291e-16
2.13398e-16
2.1646e-16
2.16459e-16
2.16456e-16
2.16452e-16
2.16445e-16
2.16433e-16
2.16415e-16
2.16388e-16
2.16346e-16
2.16285e-16
2.16196e-16
2.16073e-16
2.15905e-16
2.15684e-16
2.15403e-16
2.15059e-16
2.14654e-16
2.14199e-16
2.13709e-16
2.13208e-16
2.14934e-16
2.14934e-16
2.14932e-16
2.1493e-16
2.14925e-16
2.14918e-16
2.14907e-16
2.1489e-16
2.14865e-16
2.14829e-16
2.14777e-16
2.14705e-16
2.14608e-16
2.14482e-16
2.14322e-16
2.14129e-16
2.13903e-16
2.13649e-16
2.13377e-16
2.131e-16
2.14061e-16
2.14061e-16
2.1406e-16
2.14058e-16
2.14055e-16
2.14051e-16
2.14044e-16
2.14035e-16
2.1402e-16
2.13998e-16
2.13968e-16
2.13927e-16
2.13872e-16
2.13801e-16
2.13711e-16
2.13604e-16
2.13479e-16
2.13339e-16
2.13191e-16
2.13039e-16
2.13566e-16
2.13566e-16
2.13565e-16
2.13565e-16
2.13563e-16
2.1356e-16
2.13557e-16
2.13551e-16
2.13542e-16
2.1353e-16
2.13513e-16
2.13489e-16
2.13459e-16
2.13419e-16
2.1337e-16
2.13311e-16
2.13243e-16
2.13167e-16
2.13087e-16
2.13005e-16
2.1329e-16
2.1329e-16
2.13289e-16
2.13289e-16
2.13288e-16
2.13286e-16
2.13284e-16
2.13281e-16
2.13276e-16
2.13269e-16
2.1326e-16
2.13247e-16
2.1323e-16
2.13208e-16
2.13181e-16
2.13149e-16
2.13113e-16
2.13072e-16
2.1303e-16
2.12986e-16
2.13138e-16
2.13138e-16
2.13138e-16
2.13137e-16
2.13137e-16
2.13136e-16
2.13135e-16
2.13133e-16
2.1313e-16
2.13126e-16
2.13121e-16
2.13114e-16
2.13105e-16
2.13093e-16
2.13079e-16
2.13062e-16
2.13043e-16
2.13021e-16
2.12999e-16
2.12976e-16
2.13055e-16
2.13055e-16
2.13055e-16
2.13055e-16
2.13055e-16
2.13054e-16
2.13054e-16
2.13053e-16
2.13051e-16
2.13049e-16
2.13046e-16
2.13042e-16
2.13038e-16
2.13031e-16
2.13024e-16
2.13015e-16
2.13005e-16
2.12994e-16
2.12982e-16
2.12971e-16
2.13011e-16
2.13011e-16
2.13011e-16
2.13011e-16
2.13011e-16
2.13011e-16
2.13011e-16
2.1301e-16
2.13009e-16
2.13008e-16
2.13007e-16
2.13005e-16
2.13002e-16
2.12999e-16
2.12995e-16
2.1299e-16
2.12985e-16
2.1298e-16
2.12974e-16
2.12968e-16
2.12988e-16
2.12988e-16
2.12988e-16
2.12988e-16
2.12988e-16
2.12988e-16
2.12988e-16
2.12988e-16
2.12987e-16
2.12987e-16
2.12986e-16
2.12985e-16
2.12984e-16
2.12982e-16
2.1298e-16
2.12978e-16
2.12975e-16
2.12972e-16
2.12969e-16
2.12966e-16
2.12977e-16
2.12977e-16
2.12977e-16
2.12977e-16
2.12977e-16
2.12976e-16
2.12976e-16
2.12976e-16
2.12976e-16
2.12976e-16
2.12975e-16
2.12975e-16
2.12974e-16
2.12973e-16
2.12972e-16
2.12971e-16
2.1297e-16
2.12969e-16
2.12967e-16
2.12966e-16
2.12971e-16
2.12971e-16
2.12971e-16
2.12971e-16
2.12971e-16
2.12971e-16
2.1297e-16
2.1297e-16
2.1297e-16
2.1297e-16
2.1297e-16
2.1297e-16
2.12969e-16
2.12969e-16
2.12968e-16
2.12968e-16
2.12967e-16
2.12967e-16
2.12966e-16
2.12965e-16
2.12968e-16
2.12968e-16
2.12968e-16
2.12968e-16
2.12968e-16
2.12968e-16
2.12968e-16
2.12968e-16
2.12967e-16
2.12967e-16
2.12967e-16
2.12967e-16
2.12967e-16
2.12967e-16
2.12967e-16
2.12966e-16
2.12966e-16
2.12966e-16
2.12965e-16
2.12965e-16
2.12966e-16
2.12966e-16
2.12966e-16
2.12966e-16
2.12966e-16
2.12966e-16
2.12966e-16
2.12966e-16
2.12966e-16
2.12966e-16
2.12966e-16
2.12966e-16
2.12966e-16
2.12966e-16
2.12966e-16
2.12966e-16
2.12965e-16
2.12965e-16
2.12965e-16
2.12965e-16
2.12965e-16
2.12965e-16
2.12965e-16
2.12965e-16
2.12965e-16
2.12965e-16
2.12965e-16
2.12965e-16
2.12965e-16
2.12965e-16
2.12965e-16
2.12965e-16
2.12965e-16
2.12965e-16
2.12965e-16
2.12965e-16
2.12965e-16
2.12965e-16
2.12965e-16
2.12965e-16
2.12965e-16
2.12965e-16
2.12965e-16
2.12965e-16
2.12965e-16
2.12965e-16
2.12965e-16
2.12965e-16
2.12965e-16
2.12965e-16
2.12965e-16
2.12965e-16
2.12965e-16
2.12965e-16
2.12965e-16
2.12965e-16
2.12965e-16
2.12965e-16
2.12965e-16
2.12965e-16
2.12965e-16
2.12965e-16
2.12965e-16
2.12965e-16
2.12965e-16
2.12965e-16
2.12965e-16
2.12965e-16
2.12965e-16
2.12965e-16
2.12965e-16
2.12965e-16
2.12965e-16
2.12965e-16
2.12965e-16
2.12965e-16
2.12965e-16
2.12965e-16
2.12965e-16
2.12965e-16
2.12965e-16
2.12965e-16
2.12965e-16
2.12965e-16
2.12965e-16
2.12965e-16
2.12965e-16
2.12965e-16
2.12965e-16
2.12965e-16
2.12965e-16
2.12965e-16
2.12965e-16
2.12965e-16
2.12965e-16
2.12965e-16
2.12965e-16
2.12965e-16
2.12965e-16
2.12965e-16
2.12965e-16
2.12965e-16
2.12965e-16
2.12965e-16
2.12965e-16
2.12965e-16
2.12965e-16
2.12965e-16
2.12965e-16
2.12965e-16
2.12965e-16
2.12965e-16
2.12965e-16
2.12965e-16
2.12965e-16
2.12965e-16
2.12965e-16
2.12965e-16
2.12965e-16
2.12965e-16
2.12965e-16
2.12965e-16
2.12965e-16
2.12965e-16
2.12965e-16
2.12965e-16
2.12965e-16
2.12965e-16
2.12965e-16
2.12965e-16
2.12965e-16
2.12965e-16
2.12965e-16
2.12965e-16
2.12965e-16
2.12965e-16
2.12965e-16
2.12965e-16
2.12965e-16
2.12965e-16
2.12965e-16
2.12965e-16
2.12965e-16
2.12965e-16
2.12965e-16
2.12965e-16
2.12965e-16
2.12965e-16
2.12965e-16
2.12965e-16
2.12965e-16
2.12965e-16
2.12965e-16
2.12965e-16
2.12965e-16
2.12965e-16
2.12965e-16
2.12965e-16
2.12965e-16
2.12965e-16
2.12965e-16
2.12965e-16
2.12965e-16
2.12965e-16
2.12965e-16
2.12965e-16
2.12965e-16
2.12965e-16
2.12965e-16
2.12965e-16
2.12965e-16
2.12965e-16
2.12965e-16
2.12965e-16
2.12965e-16
2.12965e-16
2.12965e-16
2.12965e-16
2.12965e-16
2.12965e-16
2.12965e-16
2.12965e-16
2.12965e-16
2.12965e-16
2.12965e-16
2.12965e-16
2.12965e-16
2.12965e-16
2.12965e-16
2.12965e-16
2.12965e-16
2.12965e-16
2.12965e-16
2.12965e-16
2.12965e-16
2.12965e-16
2.12965e-16
2.12965e-16
2.12965e-16
2.12965e-16
2.12965e-16
2.12965e-16
2.12965e-16
2.12965e-16
2.12965e-16
2.12965e-16
2.12965e-16
2.12965e-16
2.12965e-16
2.12965e-16
2.12965e-16
2.12965e-16
2.12965e-16
2.12965e-16
2.12965e-16
2.12965e-16
2.12965e-16
2.12965e-16
2.12965e-16
2.12965e-16
2.12965e-16
2.12965e-16
2.12965e-16
2.12965e-16
2.12965e-16
2.12965e-16
2.12965e-16
2.12965e-16
2.12965e-16
2.12965e-16
2.12965e-16
2.12965e-16
2.12965e-16
2.12965e-16
2.12965e-16
2.12965e-16
2.12965e-16
2.12965e-16
2.12965e-16
2.12965e-16
2.12965e-16
2.12965e-16
2.12965e-16
2.12965e-16
2.12965e-16
2.12965e-16
2.12965e-16
2.12965e-16
2.12965e-16
2.12965e-16
2.12965e-16
2.12965e-16
2.12965e-16
2.12965e-16
2.12965e-16
2.12965e-16
2.12965e-16
2.12965e-16
2.12965e-16
2.12965e-16
2.12965e-16
2.12965e-16
2.12965e-16
2.12965e-16
2.12965e-16
2.12965e-16
2.12965e-16
2.12965e-16
2.12965e-16
2.12965e-16
2.12965e-16
2.12965e-16
2.12965e-16
2.12965e-16
2.12965e-16
2.12965e-16
2.12965e-16
2.12965e-16
2.12965e-16
2.12965e-16
2.12965e-16
2.12965e-16
2.12965e-16
2.12965e-16
2.12965e-16
2.12965e-16
2.12965e-16
2.12965e-16
2.12965e-16
2.12965e-16
2.12965e-16
2.12965e-16
2.12965e-16
2.12965e-16
2.12965e-16
2.12965e-16
2.12965e-16
2.12965e-16
2.12965e-16
2.12965e-16
2.12965e-16
2.12965e-16
2.12965e-16
2.12965e-16
2.12965e-16
2.12965e-16
2.12965e-16
2.12965e-16
2.12965e-16
2.12965e-16
2.12965e-16
2.12965e-16
2.12965e-16
2.12965e-16
2.12965e-16
2.12965e-16
2.12965e-16
2.12965e-16
2.12965e-16
2.12965e-16
2.12965e-16
2.12965e-16
2.12965e-16
2.12965e-16
2.12965e-16
2.12965e-16
2.12965e-16
2.12965e-16
2.12965e-16
2.12965e-16
2.12965e-16
2.12965e-16
2.12965e-16
2.12965e-16
2.12965e-16
2.12965e-16
2.12965e-16
2.12965e-16
2.12965e-16
2.12965e-16
2.12965e-16
2.12965e-16
2.12965e-16
2.12965e-16
2.12965e-16
2.12965e-16
2.12965e-16
2.12965e-16
2.12965e-16
2.12965e-16
2.12965e-16
2.12965e-16
2.12965e-16
2.12965e-16
2.12965e-16
2.12965e-16
2.12965e-16
2.12965e-16
2.12965e-16
2.12965e-16
2.12965e-16
2.12965e-16
2.12965e-16
2.12965e-16
2.12965e-16
2.12965e-16
2.12965e-16
2.12965e-16
2.12965e-16
2.12965e-16
2.12965e-16
2.12965e-16
2.12965e-16
2.12965e-16
2.12965e-16
2.12965e-16
2.12965e-16
2.12965e-16
2.12965e-16
2.12965e-16
)
;

boundaryField
{
    topWall
    {
        type            calculated;
        value           uniform 0;
    }
    bottomWall
    {
        type            zeroGradient;
    }
    sideWallL
    {
        type            symmetry;
    }
    sideWallR
    {
        type            calculated;
        value           uniform 0;
    }
    frontAndBack
    {
        type            empty;
    }
}


// ************************************************************************* //
