/*--------------------------------*- C++ -*----------------------------------*\
  =========                 |
  \\      /  F ield         | OpenFOAM: The Open Source CFD Toolbox
   \\    /   O peration     | Website:  https://openfoam.org
    \\  /    A nd           | Version:  7
     \\/     M anipulation  |
\*---------------------------------------------------------------------------*/
FoamFile
{
    version     2.0;
    format      ascii;
    class       volScalarField;
    location    "8";
    object      rhois;
}
// * * * * * * * * * * * * * * * * * * * * * * * * * * * * * * * * * * * * * //

dimensions      [1 -3 0 0 0 0 0];

internalField   nonuniform List<scalar> 
900
(
1.26107e-08
1.26105e-08
1.261e-08
1.26092e-08
1.26076e-08
1.26048e-08
1.26e-08
1.25918e-08
1.25778e-08
1.25538e-08
1.2513e-08
1.24434e-08
1.23241e-08
1.21176e-08
1.17548e-08
1.11014e-08
9.88723e-09
7.59488e-09
3.73067e-09
3.51371e-10
1.83625e-09
1.83616e-09
1.83595e-09
1.83555e-09
1.83485e-09
1.83362e-09
1.83152e-09
1.82791e-09
1.82177e-09
1.81136e-09
1.7938e-09
1.76432e-09
1.71507e-09
1.63341e-09
1.49979e-09
1.2873e-09
9.70537e-10
5.63622e-10
1.90734e-10
2.34399e-11
3.6104e-10
3.61012e-10
3.60947e-10
3.60825e-10
3.60608e-10
3.60233e-10
3.59589e-10
3.58491e-10
3.56634e-10
3.53518e-10
3.48333e-10
3.39799e-10
3.25955e-10
3.03978e-10
2.70287e-10
2.21638e-10
1.58387e-10
9.00328e-11
3.6119e-11
1.00016e-11
9.73115e-11
9.73023e-11
9.7281e-11
9.72412e-11
9.71709e-11
9.70493e-11
9.68415e-11
9.64897e-11
9.58994e-11
9.49193e-11
9.33125e-11
9.07197e-11
8.66254e-11
8.03569e-11
7.11935e-11
5.87165e-11
4.34904e-11
2.77477e-11
1.49124e-11
7.19176e-12
3.58756e-11
3.58722e-11
3.58642e-11
3.58494e-11
3.58232e-11
3.57782e-11
3.57016e-11
3.55729e-11
3.53587e-11
3.50071e-11
3.44387e-11
3.35377e-11
3.2146e-11
3.00707e-11
2.71257e-11
2.32287e-11
1.85543e-11
1.36486e-11
9.31047e-12
6.16586e-12
1.76361e-11
1.76346e-11
1.76312e-11
1.76248e-11
1.76135e-11
1.75942e-11
1.75616e-11
1.75072e-11
1.74174e-11
1.72717e-11
1.70391e-11
1.66761e-11
1.61249e-11
1.53182e-11
1.41929e-11
1.27204e-11
1.09482e-11
9.02933e-12
7.20014e-12
5.6879e-12
1.09865e-11
1.09858e-11
1.09841e-11
1.09809e-11
1.09754e-11
1.09659e-11
1.09501e-11
1.09239e-11
1.08811e-11
1.08123e-11
1.07039e-11
1.05369e-11
1.02869e-11
9.926e-12
9.42809e-12
8.77934e-12
7.99208e-12
7.11552e-12
6.23261e-12
5.43676e-12
8.13747e-12
8.13706e-12
8.13612e-12
8.13439e-12
8.13137e-12
8.12626e-12
8.11773e-12
8.10373e-12
8.08107e-12
8.04504e-12
7.9889e-12
7.90353e-12
7.77738e-12
7.59739e-12
7.35126e-12
7.03165e-12
6.64152e-12
6.19879e-12
5.73651e-12
5.29627e-12
6.76272e-12
6.76247e-12
6.76192e-12
6.76089e-12
6.7591e-12
6.75611e-12
6.75115e-12
6.74307e-12
6.73013e-12
6.70977e-12
6.67843e-12
6.63134e-12
6.56262e-12
6.46568e-12
6.33431e-12
6.16456e-12
5.95704e-12
5.71905e-12
5.46517e-12
5.21502e-12
6.04224e-12
6.04209e-12
6.04174e-12
6.04109e-12
6.03998e-12
6.03813e-12
6.0351e-12
6.0302e-12
6.02242e-12
6.01034e-12
5.99194e-12
5.96464e-12
5.92529e-12
5.87042e-12
5.7968e-12
5.70231e-12
5.58706e-12
5.45439e-12
5.31122e-12
5.16727e-12
5.64363e-12
5.64353e-12
5.64331e-12
5.64289e-12
5.64218e-12
5.641e-12
5.63909e-12
5.63603e-12
5.63122e-12
5.62383e-12
5.61272e-12
5.59644e-12
5.57325e-12
5.54129e-12
5.49886e-12
5.44486e-12
5.37933e-12
5.30394e-12
5.22218e-12
5.13902e-12
5.41571e-12
5.41565e-12
5.4155e-12
5.41523e-12
5.41477e-12
5.41401e-12
5.41278e-12
5.41085e-12
5.40784e-12
5.40327e-12
5.39647e-12
5.38662e-12
5.37278e-12
5.35392e-12
5.32915e-12
5.29791e-12
5.26027e-12
5.2171e-12
5.17025e-12
5.12232e-12
5.28308e-12
5.28304e-12
5.28294e-12
5.28276e-12
5.28246e-12
5.28197e-12
5.28119e-12
5.27996e-12
5.27808e-12
5.27525e-12
5.27108e-12
5.26512e-12
5.25684e-12
5.24568e-12
5.23119e-12
5.21309e-12
5.19143e-12
5.16672e-12
5.13995e-12
5.11249e-12
5.20539e-12
5.20536e-12
5.20529e-12
5.20518e-12
5.20499e-12
5.20467e-12
5.20418e-12
5.20341e-12
5.20224e-12
5.20049e-12
5.19796e-12
5.19437e-12
5.18944e-12
5.18288e-12
5.17444e-12
5.164e-12
5.1516e-12
5.13753e-12
5.12234e-12
5.10675e-12
5.15993e-12
5.15991e-12
5.15987e-12
5.1598e-12
5.15968e-12
5.15948e-12
5.15917e-12
5.15869e-12
5.15797e-12
5.15692e-12
5.15539e-12
5.15326e-12
5.15036e-12
5.14653e-12
5.14167e-12
5.13569e-12
5.12866e-12
5.12073e-12
5.11218e-12
5.10343e-12
5.13351e-12
5.1335e-12
5.13348e-12
5.13343e-12
5.13335e-12
5.13323e-12
5.13304e-12
5.13275e-12
5.13232e-12
5.13168e-12
5.13078e-12
5.12953e-12
5.12785e-12
5.12565e-12
5.12288e-12
5.1195e-12
5.11556e-12
5.11114e-12
5.10639e-12
5.10153e-12
5.11832e-12
5.11831e-12
5.11829e-12
5.11827e-12
5.11822e-12
5.11814e-12
5.11803e-12
5.11786e-12
5.1176e-12
5.11723e-12
5.1167e-12
5.11598e-12
5.11502e-12
5.11378e-12
5.11222e-12
5.11034e-12
5.10816e-12
5.10572e-12
5.10312e-12
5.10046e-12
5.10969e-12
5.10968e-12
5.10967e-12
5.10966e-12
5.10963e-12
5.10958e-12
5.10952e-12
5.10942e-12
5.10927e-12
5.10905e-12
5.10875e-12
5.10835e-12
5.10781e-12
5.10711e-12
5.10625e-12
5.10522e-12
5.10403e-12
5.10271e-12
5.1013e-12
5.09987e-12
5.10486e-12
5.10486e-12
5.10485e-12
5.10484e-12
5.10482e-12
5.1048e-12
5.10476e-12
5.1047e-12
5.10462e-12
5.1045e-12
5.10433e-12
5.1041e-12
5.1038e-12
5.10342e-12
5.10296e-12
5.1024e-12
5.10176e-12
5.10105e-12
5.1003e-12
5.09954e-12
5.1022e-12
5.1022e-12
5.10219e-12
5.10219e-12
5.10218e-12
5.10216e-12
5.10214e-12
5.10211e-12
5.10206e-12
5.10199e-12
5.1019e-12
5.10178e-12
5.10162e-12
5.10141e-12
5.10116e-12
5.10087e-12
5.10053e-12
5.10016e-12
5.09976e-12
5.09936e-12
5.10075e-12
5.10075e-12
5.10075e-12
5.10075e-12
5.10074e-12
5.10074e-12
5.10072e-12
5.10071e-12
5.10068e-12
5.10064e-12
5.10059e-12
5.10053e-12
5.10044e-12
5.10033e-12
5.1002e-12
5.10005e-12
5.09987e-12
5.09968e-12
5.09948e-12
5.09927e-12
5.09999e-12
5.09999e-12
5.09998e-12
5.09998e-12
5.09998e-12
5.09998e-12
5.09997e-12
5.09996e-12
5.09995e-12
5.09993e-12
5.0999e-12
5.09987e-12
5.09982e-12
5.09976e-12
5.0997e-12
5.09962e-12
5.09953e-12
5.09943e-12
5.09933e-12
5.09922e-12
5.09958e-12
5.09958e-12
5.09958e-12
5.09958e-12
5.09958e-12
5.09958e-12
5.09957e-12
5.09957e-12
5.09956e-12
5.09955e-12
5.09954e-12
5.09952e-12
5.0995e-12
5.09947e-12
5.09943e-12
5.09939e-12
5.09935e-12
5.0993e-12
5.09925e-12
5.09919e-12
5.09938e-12
5.09938e-12
5.09938e-12
5.09937e-12
5.09937e-12
5.09937e-12
5.09937e-12
5.09937e-12
5.09936e-12
5.09936e-12
5.09935e-12
5.09934e-12
5.09933e-12
5.09932e-12
5.0993e-12
5.09928e-12
5.09926e-12
5.09923e-12
5.09921e-12
5.09918e-12
5.09927e-12
5.09927e-12
5.09927e-12
5.09927e-12
5.09927e-12
5.09927e-12
5.09927e-12
5.09927e-12
5.09926e-12
5.09926e-12
5.09926e-12
5.09925e-12
5.09925e-12
5.09924e-12
5.09923e-12
5.09922e-12
5.09921e-12
5.0992e-12
5.09919e-12
5.09918e-12
5.09922e-12
5.09922e-12
5.09922e-12
5.09922e-12
5.09922e-12
5.09922e-12
5.09922e-12
5.09922e-12
5.09922e-12
5.09921e-12
5.09921e-12
5.09921e-12
5.09921e-12
5.0992e-12
5.0992e-12
5.0992e-12
5.09919e-12
5.09918e-12
5.09918e-12
5.09917e-12
5.09919e-12
5.09919e-12
5.09919e-12
5.09919e-12
5.09919e-12
5.09919e-12
5.09919e-12
5.09919e-12
5.09919e-12
5.09919e-12
5.09919e-12
5.09919e-12
5.09919e-12
5.09919e-12
5.09918e-12
5.09918e-12
5.09918e-12
5.09918e-12
5.09917e-12
5.09917e-12
5.09918e-12
5.09918e-12
5.09918e-12
5.09918e-12
5.09918e-12
5.09918e-12
5.09918e-12
5.09918e-12
5.09918e-12
5.09918e-12
5.09918e-12
5.09918e-12
5.09918e-12
5.09918e-12
5.09918e-12
5.09917e-12
5.09917e-12
5.09917e-12
5.09917e-12
5.09917e-12
5.09917e-12
5.09917e-12
5.09917e-12
5.09917e-12
5.09917e-12
5.09917e-12
5.09917e-12
5.09917e-12
5.09917e-12
5.09917e-12
5.09917e-12
5.09917e-12
5.09917e-12
5.09917e-12
5.09917e-12
5.09917e-12
5.09917e-12
5.09917e-12
5.09917e-12
5.09917e-12
5.09917e-12
5.09917e-12
5.09917e-12
5.09917e-12
5.09917e-12
5.09917e-12
5.09917e-12
5.09917e-12
5.09917e-12
5.09917e-12
5.09917e-12
5.09917e-12
5.09917e-12
5.09917e-12
5.09917e-12
5.09917e-12
5.09917e-12
5.09917e-12
5.09917e-12
5.09917e-12
5.09917e-12
5.09917e-12
5.09917e-12
5.09917e-12
5.09917e-12
5.09917e-12
5.09917e-12
5.09917e-12
5.09917e-12
5.09917e-12
5.09917e-12
5.09917e-12
5.09917e-12
5.09917e-12
5.09917e-12
5.09917e-12
5.09917e-12
5.09917e-12
5.09917e-12
5.09917e-12
5.09917e-12
5.09917e-12
5.09917e-12
5.09917e-12
5.09917e-12
5.09917e-12
5.09917e-12
5.09917e-12
5.09917e-12
5.09917e-12
5.09917e-12
5.09917e-12
5.09917e-12
5.09917e-12
5.09917e-12
5.09917e-12
5.09917e-12
5.09917e-12
5.09917e-12
5.09917e-12
5.09917e-12
5.09917e-12
5.09917e-12
5.09917e-12
5.09917e-12
5.09917e-12
5.09917e-12
5.09917e-12
5.09917e-12
5.09917e-12
5.09917e-12
5.09917e-12
5.09917e-12
5.09917e-12
5.09917e-12
5.09917e-12
5.09917e-12
5.09917e-12
5.09917e-12
5.09917e-12
5.09917e-12
5.09917e-12
5.09917e-12
5.09917e-12
5.09917e-12
5.09917e-12
5.09917e-12
5.09917e-12
5.09917e-12
5.09917e-12
5.09917e-12
5.09917e-12
5.09917e-12
5.09917e-12
5.09917e-12
5.09917e-12
5.09917e-12
5.09917e-12
5.09917e-12
5.09917e-12
5.09917e-12
5.09917e-12
5.09917e-12
5.09917e-12
5.09917e-12
5.09917e-12
5.09917e-12
5.09917e-12
5.09917e-12
5.09917e-12
5.09917e-12
5.09917e-12
5.09917e-12
5.09917e-12
5.09917e-12
5.09917e-12
5.09917e-12
5.09917e-12
5.09917e-12
5.09917e-12
5.09917e-12
5.09917e-12
5.09917e-12
5.09917e-12
5.09917e-12
5.09917e-12
5.09917e-12
5.09917e-12
5.09917e-12
5.09917e-12
5.09917e-12
5.09917e-12
5.09917e-12
5.09917e-12
5.09917e-12
5.09917e-12
5.09917e-12
5.09917e-12
5.09917e-12
5.09917e-12
5.09917e-12
5.09917e-12
5.09917e-12
5.09917e-12
5.09917e-12
5.09917e-12
5.09917e-12
5.09917e-12
5.09917e-12
5.09917e-12
5.09917e-12
5.09917e-12
5.09917e-12
5.09917e-12
5.09917e-12
5.09917e-12
5.09917e-12
5.09917e-12
5.09917e-12
5.09917e-12
5.09917e-12
5.09917e-12
5.09917e-12
5.09917e-12
5.09917e-12
5.09917e-12
5.09917e-12
5.09917e-12
5.09917e-12
5.09917e-12
5.09917e-12
5.09917e-12
5.09917e-12
5.09917e-12
5.09917e-12
5.09917e-12
5.09917e-12
5.09917e-12
5.09917e-12
5.09917e-12
5.09917e-12
5.09917e-12
5.09917e-12
5.09917e-12
5.09917e-12
5.09917e-12
5.09917e-12
5.09917e-12
5.09917e-12
5.09917e-12
5.09917e-12
5.09917e-12
5.09917e-12
5.09917e-12
5.09917e-12
5.09917e-12
5.09917e-12
5.09917e-12
5.09917e-12
5.09917e-12
5.09917e-12
5.09917e-12
5.09917e-12
5.09917e-12
5.09917e-12
5.09917e-12
5.09917e-12
5.09917e-12
5.09917e-12
5.09917e-12
5.09917e-12
5.09917e-12
5.09917e-12
5.09917e-12
5.09917e-12
5.09917e-12
5.09917e-12
5.09917e-12
5.09917e-12
5.09917e-12
5.09917e-12
5.09917e-12
5.09917e-12
5.09917e-12
5.09917e-12
5.09917e-12
5.09917e-12
5.09917e-12
5.09917e-12
5.09917e-12
5.09917e-12
5.09917e-12
5.09917e-12
5.09917e-12
5.09917e-12
5.09917e-12
5.09917e-12
5.09917e-12
5.09917e-12
5.09917e-12
5.09917e-12
5.09917e-12
5.09917e-12
5.09917e-12
5.09917e-12
5.09917e-12
5.09917e-12
5.09917e-12
5.09917e-12
5.09917e-12
5.09917e-12
5.09917e-12
5.09917e-12
5.09917e-12
5.09917e-12
5.09917e-12
5.09917e-12
5.09917e-12
5.09917e-12
5.09917e-12
5.09917e-12
5.09917e-12
5.09917e-12
5.09917e-12
5.09917e-12
5.09917e-12
5.09917e-12
5.09917e-12
5.09917e-12
5.09917e-12
5.09917e-12
5.09917e-12
5.09917e-12
5.09917e-12
5.09917e-12
5.09917e-12
5.09917e-12
5.09917e-12
5.09917e-12
5.09917e-12
5.09917e-12
5.09917e-12
5.09917e-12
5.09917e-12
5.09917e-12
5.09917e-12
5.09917e-12
5.09917e-12
5.09917e-12
5.09917e-12
5.09917e-12
5.09917e-12
5.09917e-12
5.09917e-12
5.09917e-12
5.09917e-12
5.09917e-12
5.09917e-12
5.09917e-12
5.09917e-12
5.09917e-12
5.09917e-12
5.09917e-12
5.09917e-12
5.09917e-12
5.09917e-12
5.09917e-12
5.09917e-12
5.09917e-12
5.09917e-12
5.09917e-12
5.09917e-12
5.09917e-12
5.09917e-12
5.09917e-12
5.09917e-12
5.09917e-12
5.09917e-12
5.09917e-12
5.09917e-12
)
;

boundaryField
{
    topWall
    {
        type            zeroGradient;
    }
    bottomWall
    {
        type            zeroGradient;
    }
    sideWallL
    {
        type            symmetry;
    }
    sideWallR
    {
        type            zeroGradient;
    }
    frontAndBack
    {
        type            empty;
    }
}


// ************************************************************************* //
