/*--------------------------------*- C++ -*----------------------------------*\
  =========                 |
  \\      /  F ield         | OpenFOAM: The Open Source CFD Toolbox
   \\    /   O peration     | Website:  https://openfoam.org
    \\  /    A nd           | Version:  7
     \\/     M anipulation  |
\*---------------------------------------------------------------------------*/
FoamFile
{
    version     2.0;
    format      ascii;
    class       volScalarField;
    location    "8";
    object      rhot2;
}
// * * * * * * * * * * * * * * * * * * * * * * * * * * * * * * * * * * * * * //

dimensions      [1 -3 0 0 0 0 0];

internalField   nonuniform List<scalar> 
900
(
2.60142e-21
2.6013e-21
2.60102e-21
2.6005e-21
2.59958e-21
2.59799e-21
2.59525e-21
2.59058e-21
2.58263e-21
2.56917e-21
2.54645e-21
2.50814e-21
2.44362e-21
2.33496e-21
2.1522e-21
1.8474e-21
1.35738e-21
6.74054e-22
1.02335e-22
1.87776e-25
1.69917e-23
1.69893e-23
1.69838e-23
1.69734e-23
1.6955e-23
1.69233e-23
1.68689e-23
1.67764e-23
1.66204e-23
1.63595e-23
1.59272e-23
1.52212e-23
1.40916e-23
1.2345e-23
9.80274e-24
6.49644e-24
3.04154e-24
7.06608e-25
3.80533e-26
1.23554e-28
2.34707e-25
2.34654e-25
2.34533e-25
2.34305e-25
2.33904e-25
2.33211e-25
2.3203e-25
2.30036e-25
2.26704e-25
2.21207e-25
2.12293e-25
1.98192e-25
1.76705e-25
1.45862e-25
1.05737e-25
6.14816e-26
2.45618e-26
5.23267e-27
4.2193e-28
1.21206e-29
7.08572e-27
7.08375e-27
7.07921e-27
7.07075e-27
7.05585e-27
7.03025e-27
6.98681e-27
6.91399e-27
6.79349e-27
6.59736e-27
6.28523e-27
5.80412e-27
5.09675e-27
4.1288e-27
2.94306e-27
1.71862e-27
7.43209e-28
2.11293e-28
3.71112e-29
4.98988e-30
4.66203e-28
4.66068e-28
4.65759e-28
4.65182e-28
4.64171e-28
4.6244e-28
4.59518e-28
4.54654e-28
4.46675e-28
4.33833e-28
4.13679e-28
3.83138e-28
3.391e-28
2.79998e-28
2.08505e-28
1.33957e-28
7.06787e-29
2.96109e-29
1.0149e-29
3.31658e-30
6.41892e-29
6.41726e-29
6.41345e-29
6.40637e-29
6.394e-29
6.37292e-29
6.33752e-29
6.27896e-29
6.18362e-29
6.03149e-29
5.79496e-29
5.43972e-29
4.9307e-29
4.24689e-29
3.40561e-29
2.48542e-29
1.62004e-29
9.4132e-30
5.0389e-30
2.68345e-30
1.67985e-29
1.67951e-29
1.67872e-29
1.67727e-29
1.67473e-29
1.67042e-29
1.66323e-29
1.65141e-29
1.6323e-29
1.60201e-29
1.55523e-29
1.4853e-29
1.38507e-29
1.24917e-29
1.0776e-29
8.79778e-30
6.7553e-30
4.89777e-30
3.42046e-30
2.38577e-30
7.19303e-30
7.19197e-30
7.18953e-30
7.18502e-30
7.1772e-30
7.16401e-30
7.1421e-30
7.1063e-30
7.04883e-30
6.9584e-30
6.81958e-30
6.61288e-30
6.31654e-30
5.91134e-30
5.38889e-30
4.76175e-30
4.06982e-30
3.3756e-30
2.74598e-30
2.22947e-30
4.29864e-30
4.2982e-30
4.29718e-30
4.29532e-30
4.29211e-30
4.28672e-30
4.27782e-30
4.26339e-30
4.2404e-30
4.2045e-30
4.14979e-30
4.06877e-30
3.95287e-30
3.79386e-30
3.58632e-30
3.331e-30
3.03761e-30
2.72522e-30
2.41877e-30
2.14244e-30
3.16191e-30
3.16169e-30
3.16118e-30
3.16025e-30
3.15866e-30
3.156e-30
3.15164e-30
3.14463e-30
3.13356e-30
3.11641e-30
3.09051e-30
3.05243e-30
2.99824e-30
2.92401e-30
2.82673e-30
2.7056e-30
2.56332e-30
2.40666e-30
2.24583e-30
2.09244e-30
2.63427e-30
2.63415e-30
2.63386e-30
2.63334e-30
2.63245e-30
2.63098e-30
2.62859e-30
2.62477e-30
2.61879e-30
2.60963e-30
2.59591e-30
2.57593e-30
2.54771e-30
2.50925e-30
2.45893e-30
2.39606e-30
2.32148e-30
2.23793e-30
2.14997e-30
2.06327e-30
2.36319e-30
2.36311e-30
2.36294e-30
2.36263e-30
2.3621e-30
2.36123e-30
2.35982e-30
2.3576e-30
2.35416e-30
2.34894e-30
2.3412e-30
2.33003e-30
2.3144e-30
2.29326e-30
2.26575e-30
2.23144e-30
2.19064e-30
2.1446e-30
2.09549e-30
2.04618e-30
2.21542e-30
2.21537e-30
2.21526e-30
2.21507e-30
2.21474e-30
2.21421e-30
2.21336e-30
2.21202e-30
2.20998e-30
2.2069e-30
2.20238e-30
2.19594e-30
2.18701e-30
2.17503e-30
2.15956e-30
2.14036e-30
2.11757e-30
2.09182e-30
2.06419e-30
2.03618e-30
2.13225e-30
2.13222e-30
2.13215e-30
2.13203e-30
2.13183e-30
2.1315e-30
2.13097e-30
2.13016e-30
2.12893e-30
2.12709e-30
2.12443e-30
2.12066e-30
2.11549e-30
2.10863e-30
2.09983e-30
2.08898e-30
2.07617e-30
2.06171e-30
2.04618e-30
2.03035e-30
2.08476e-30
2.08474e-30
2.0847e-30
2.08463e-30
2.0845e-30
2.0843e-30
2.08398e-30
2.08348e-30
2.08274e-30
2.08164e-30
2.08007e-30
2.07787e-30
2.07488e-30
2.07094e-30
2.06594e-30
2.05981e-30
2.05262e-30
2.04453e-30
2.03586e-30
2.02699e-30
2.05757e-30
2.05756e-30
2.05753e-30
2.05749e-30
2.05741e-30
2.05728e-30
2.05709e-30
2.05679e-30
2.05635e-30
2.0557e-30
2.05478e-30
2.0535e-30
2.05178e-30
2.04954e-30
2.04672e-30
2.04328e-30
2.03928e-30
2.03479e-30
2.02998e-30
2.02508e-30
2.04207e-30
2.04206e-30
2.04204e-30
2.04202e-30
2.04197e-30
2.04189e-30
2.04178e-30
2.0416e-30
2.04134e-30
2.04096e-30
2.04043e-30
2.0397e-30
2.03872e-30
2.03746e-30
2.03588e-30
2.03398e-30
2.03177e-30
2.02931e-30
2.02668e-30
2.024e-30
2.03331e-30
2.03331e-30
2.0333e-30
2.03328e-30
2.03325e-30
2.03321e-30
2.03314e-30
2.03304e-30
2.03289e-30
2.03267e-30
2.03237e-30
2.03196e-30
2.03141e-30
2.03071e-30
2.02984e-30
2.0288e-30
2.0276e-30
2.02626e-30
2.02484e-30
2.0234e-30
2.02843e-30
2.02843e-30
2.02842e-30
2.02841e-30
2.02839e-30
2.02837e-30
2.02833e-30
2.02827e-30
2.02818e-30
2.02806e-30
2.02789e-30
2.02767e-30
2.02737e-30
2.02698e-30
2.02651e-30
2.02595e-30
2.0253e-30
2.02459e-30
2.02384e-30
2.02307e-30
2.02574e-30
2.02574e-30
2.02574e-30
2.02573e-30
2.02572e-30
2.02571e-30
2.02569e-30
2.02565e-30
2.02561e-30
2.02554e-30
2.02545e-30
2.02532e-30
2.02516e-30
2.02495e-30
2.0247e-30
2.0244e-30
2.02406e-30
2.02369e-30
2.02329e-30
2.02289e-30
2.02429e-30
2.02429e-30
2.02429e-30
2.02428e-30
2.02428e-30
2.02427e-30
2.02426e-30
2.02424e-30
2.02421e-30
2.02418e-30
2.02413e-30
2.02406e-30
2.02397e-30
2.02387e-30
2.02373e-30
2.02358e-30
2.0234e-30
2.02321e-30
2.023e-30
2.02279e-30
2.02351e-30
2.02351e-30
2.02351e-30
2.02351e-30
2.02351e-30
2.0235e-30
2.0235e-30
2.02349e-30
2.02347e-30
2.02345e-30
2.02343e-30
2.02339e-30
2.02335e-30
2.02329e-30
2.02322e-30
2.02314e-30
2.02305e-30
2.02295e-30
2.02285e-30
2.02274e-30
2.02311e-30
2.02311e-30
2.02311e-30
2.02311e-30
2.02311e-30
2.0231e-30
2.0231e-30
2.02309e-30
2.02309e-30
2.02308e-30
2.02306e-30
2.02305e-30
2.02302e-30
2.02299e-30
2.02296e-30
2.02292e-30
2.02287e-30
2.02282e-30
2.02277e-30
2.02272e-30
2.0229e-30
2.0229e-30
2.0229e-30
2.0229e-30
2.0229e-30
2.0229e-30
2.0229e-30
2.02289e-30
2.02289e-30
2.02288e-30
2.02288e-30
2.02287e-30
2.02286e-30
2.02284e-30
2.02282e-30
2.0228e-30
2.02278e-30
2.02276e-30
2.02273e-30
2.02271e-30
2.02279e-30
2.02279e-30
2.02279e-30
2.02279e-30
2.02279e-30
2.02279e-30
2.02279e-30
2.02279e-30
2.02279e-30
2.02279e-30
2.02278e-30
2.02278e-30
2.02277e-30
2.02277e-30
2.02276e-30
2.02275e-30
2.02274e-30
2.02272e-30
2.02271e-30
2.0227e-30
2.02274e-30
2.02274e-30
2.02274e-30
2.02274e-30
2.02274e-30
2.02274e-30
2.02274e-30
2.02274e-30
2.02274e-30
2.02274e-30
2.02274e-30
2.02273e-30
2.02273e-30
2.02273e-30
2.02272e-30
2.02272e-30
2.02271e-30
2.02271e-30
2.0227e-30
2.0227e-30
2.02272e-30
2.02272e-30
2.02272e-30
2.02272e-30
2.02272e-30
2.02272e-30
2.02272e-30
2.02272e-30
2.02271e-30
2.02271e-30
2.02271e-30
2.02271e-30
2.02271e-30
2.02271e-30
2.02271e-30
2.02271e-30
2.0227e-30
2.0227e-30
2.0227e-30
2.02269e-30
2.0227e-30
2.0227e-30
2.0227e-30
2.0227e-30
2.0227e-30
2.0227e-30
2.0227e-30
2.0227e-30
2.0227e-30
2.0227e-30
2.0227e-30
2.0227e-30
2.0227e-30
2.0227e-30
2.0227e-30
2.0227e-30
2.0227e-30
2.0227e-30
2.02269e-30
2.02269e-30
2.0227e-30
2.0227e-30
2.0227e-30
2.0227e-30
2.0227e-30
2.0227e-30
2.0227e-30
2.0227e-30
2.0227e-30
2.0227e-30
2.0227e-30
2.0227e-30
2.0227e-30
2.0227e-30
2.0227e-30
2.0227e-30
2.02269e-30
2.02269e-30
2.02269e-30
2.02269e-30
2.0227e-30
2.0227e-30
2.0227e-30
2.0227e-30
2.0227e-30
2.02269e-30
2.02269e-30
2.02269e-30
2.02269e-30
2.02269e-30
2.02269e-30
2.02269e-30
2.02269e-30
2.02269e-30
2.02269e-30
2.02269e-30
2.02269e-30
2.02269e-30
2.02269e-30
2.02269e-30
2.02269e-30
2.02269e-30
2.02269e-30
2.02269e-30
2.02269e-30
2.02269e-30
2.02269e-30
2.02269e-30
2.02269e-30
2.02269e-30
2.02269e-30
2.02269e-30
2.02269e-30
2.02269e-30
2.02269e-30
2.02269e-30
2.02269e-30
2.02269e-30
2.02269e-30
2.02269e-30
2.02269e-30
2.02269e-30
2.02269e-30
2.02269e-30
2.02269e-30
2.02269e-30
2.02269e-30
2.02269e-30
2.02269e-30
2.02269e-30
2.02269e-30
2.02269e-30
2.02269e-30
2.02269e-30
2.02269e-30
2.02269e-30
2.02269e-30
2.02269e-30
2.02269e-30
2.02269e-30
2.02269e-30
2.02269e-30
2.02269e-30
2.02269e-30
2.02269e-30
2.02269e-30
2.02269e-30
2.02269e-30
2.02269e-30
2.02269e-30
2.02269e-30
2.02269e-30
2.02269e-30
2.02269e-30
2.02269e-30
2.02269e-30
2.02269e-30
2.02269e-30
2.02269e-30
2.02269e-30
2.02269e-30
2.02269e-30
2.02269e-30
2.02269e-30
2.02269e-30
2.02269e-30
2.02269e-30
2.02269e-30
2.02269e-30
2.02269e-30
2.02269e-30
2.02269e-30
2.02269e-30
2.02269e-30
2.02269e-30
2.02269e-30
2.02269e-30
2.02269e-30
2.02269e-30
2.02269e-30
2.02269e-30
2.02269e-30
2.02269e-30
2.02269e-30
2.02269e-30
2.02269e-30
2.02269e-30
2.02269e-30
2.02269e-30
2.02269e-30
2.02269e-30
2.02269e-30
2.02269e-30
2.02269e-30
2.02269e-30
2.02269e-30
2.02269e-30
2.02269e-30
2.02269e-30
2.02269e-30
2.02269e-30
2.02269e-30
2.02269e-30
2.02269e-30
2.02269e-30
2.02269e-30
2.02269e-30
2.02269e-30
2.02269e-30
2.02269e-30
2.02269e-30
2.02269e-30
2.02269e-30
2.02269e-30
2.02269e-30
2.02269e-30
2.02269e-30
2.02269e-30
2.02269e-30
2.02269e-30
2.02269e-30
2.02269e-30
2.02269e-30
2.02269e-30
2.02269e-30
2.02269e-30
2.02269e-30
2.02269e-30
2.02269e-30
2.02269e-30
2.02269e-30
2.02269e-30
2.02269e-30
2.02269e-30
2.02269e-30
2.02269e-30
2.02269e-30
2.02269e-30
2.02269e-30
2.02269e-30
2.02269e-30
2.02269e-30
2.02269e-30
2.02269e-30
2.02269e-30
2.02269e-30
2.02269e-30
2.02269e-30
2.02269e-30
2.02269e-30
2.02269e-30
2.02269e-30
2.02269e-30
2.02269e-30
2.02269e-30
2.02269e-30
2.02269e-30
2.02269e-30
2.02269e-30
2.02269e-30
2.02269e-30
2.02269e-30
2.02269e-30
2.02269e-30
2.02269e-30
2.02269e-30
2.02269e-30
2.02269e-30
2.02269e-30
2.02269e-30
2.02269e-30
2.02269e-30
2.02269e-30
2.02269e-30
2.02269e-30
2.02269e-30
2.02269e-30
2.02269e-30
2.02269e-30
2.02269e-30
2.02269e-30
2.02269e-30
2.02269e-30
2.02269e-30
2.02269e-30
2.02269e-30
2.02269e-30
2.02269e-30
2.02269e-30
2.02269e-30
2.02269e-30
2.02269e-30
2.02269e-30
2.02269e-30
2.02269e-30
2.02269e-30
2.02269e-30
2.02269e-30
2.02269e-30
2.02269e-30
2.02269e-30
2.02269e-30
2.02269e-30
2.02269e-30
2.02269e-30
2.02269e-30
2.02269e-30
2.02269e-30
2.02269e-30
2.02269e-30
2.02269e-30
2.02269e-30
2.02269e-30
2.02269e-30
2.02269e-30
2.02269e-30
2.02269e-30
2.02269e-30
2.02269e-30
2.02269e-30
2.02269e-30
2.02269e-30
2.02269e-30
2.02269e-30
2.02269e-30
2.02269e-30
2.02269e-30
2.02269e-30
2.02269e-30
2.02269e-30
2.02269e-30
2.02269e-30
2.02269e-30
2.02269e-30
2.02269e-30
2.02269e-30
2.02269e-30
2.02269e-30
2.02269e-30
2.02269e-30
2.02269e-30
2.02269e-30
2.02269e-30
2.02269e-30
2.02269e-30
2.02269e-30
2.02269e-30
2.02269e-30
2.02269e-30
2.02269e-30
2.02269e-30
2.02269e-30
2.02269e-30
2.02269e-30
2.02269e-30
2.02269e-30
2.02269e-30
2.02269e-30
2.02269e-30
2.02269e-30
2.02269e-30
2.02269e-30
2.02269e-30
2.02269e-30
2.02269e-30
2.02269e-30
2.02269e-30
2.02269e-30
2.02269e-30
2.02269e-30
2.02269e-30
2.02269e-30
2.02269e-30
2.02269e-30
2.02269e-30
2.02269e-30
2.02269e-30
2.02269e-30
2.02269e-30
2.02269e-30
2.02269e-30
2.02269e-30
2.02269e-30
2.02269e-30
2.02269e-30
2.02269e-30
2.02269e-30
2.02269e-30
2.02269e-30
2.02269e-30
2.02269e-30
2.02269e-30
2.02269e-30
2.02269e-30
2.02269e-30
2.02269e-30
2.02269e-30
2.02269e-30
2.02269e-30
2.02269e-30
)
;

boundaryField
{
    topWall
    {
        type            zeroGradient;
    }
    bottomWall
    {
        type            zeroGradient;
    }
    sideWallL
    {
        type            symmetry;
    }
    sideWallR
    {
        type            zeroGradient;
    }
    frontAndBack
    {
        type            empty;
    }
}


// ************************************************************************* //
