/*--------------------------------*- C++ -*----------------------------------*\
  =========                 |
  \\      /  F ield         | OpenFOAM: The Open Source CFD Toolbox
   \\    /   O peration     | Website:  https://openfoam.org
    \\  /    A nd           | Version:  7
     \\/     M anipulation  |
\*---------------------------------------------------------------------------*/
FoamFile
{
    version     2.0;
    format      ascii;
    class       volScalarField;
    location    "8";
    object      rhot1;
}
// * * * * * * * * * * * * * * * * * * * * * * * * * * * * * * * * * * * * * //

dimensions      [1 -3 0 0 0 0 0];

internalField   nonuniform List<scalar> 
900
(
2.0257e-10
2.02566e-10
2.02554e-10
2.02533e-10
2.02496e-10
2.02432e-10
2.02322e-10
2.02134e-10
2.01814e-10
2.01272e-10
2.00353e-10
1.98796e-10
1.96148e-10
1.91615e-10
1.83755e-10
1.69891e-10
1.45023e-10
1.01247e-10
3.84749e-11
1.51343e-12
1.53749e-11
1.53737e-11
1.53712e-11
1.53663e-11
1.53577e-11
1.53428e-11
1.53173e-11
1.52739e-11
1.52005e-11
1.50769e-11
1.48704e-11
1.45271e-11
1.39618e-11
1.3043e-11
1.15846e-11
9.37643e-12
6.34843e-12
2.99866e-12
6.67934e-13
3.49146e-14
1.7106e-12
1.71041e-12
1.70995e-12
1.70909e-12
1.70757e-12
1.70495e-12
1.70048e-12
1.69291e-12
1.6802e-12
1.65904e-12
1.62421e-12
1.56766e-12
1.47765e-12
1.33865e-12
1.13432e-12
8.5811e-13
5.35149e-13
2.41434e-13
6.59629e-14
1.05268e-14
2.83683e-13
2.83642e-13
2.83547e-13
2.83371e-13
2.83061e-13
2.82528e-13
2.81621e-13
2.80097e-13
2.7756e-13
2.73386e-13
2.66622e-13
2.55877e-13
2.39271e-13
2.1463e-13
1.80238e-13
1.36567e-13
8.86186e-14
4.62919e-14
1.88267e-14
6.65004e-15
6.99973e-14
6.99868e-14
6.99625e-14
6.99173e-14
6.98381e-14
6.97024e-14
6.9473e-14
6.90898e-14
6.84574e-14
6.74289e-14
6.57859e-14
6.32223e-14
5.93477e-14
5.37454e-14
4.61384e-14
3.66936e-14
2.63494e-14
1.67827e-14
9.62411e-15
5.38171e-15
2.51663e-14
2.51629e-14
2.5155e-14
2.51405e-14
2.51151e-14
2.50717e-14
2.49988e-14
2.48779e-14
2.468e-14
2.43615e-14
2.38589e-14
2.30857e-14
2.1935e-14
2.02958e-14
1.80942e-14
1.53597e-14
1.22932e-14
9.26644e-15
6.69238e-15
4.82202e-15
1.25625e-14
1.25612e-14
1.25581e-14
1.25523e-14
1.25423e-14
1.25254e-14
1.2497e-14
1.24503e-14
1.23745e-14
1.22536e-14
1.20649e-14
1.17778e-14
1.13553e-14
1.07585e-14
9.95932e-15
8.95828e-15
7.80412e-15
6.59855e-15
5.47219e-15
4.53673e-15
8.07779e-15
8.07715e-15
8.0757e-15
8.07303e-15
8.06839e-15
8.06056e-15
8.04756e-15
8.02629e-15
7.99206e-15
7.93798e-15
7.85437e-15
7.72848e-15
7.54482e-15
7.28713e-15
6.94239e-15
6.50714e-15
5.9943e-15
5.43651e-15
4.8817e-15
4.38e-15
6.17374e-15
6.17341e-15
6.17264e-15
6.17123e-15
6.16879e-15
6.1647e-15
6.15795e-15
6.14699e-15
6.12951e-15
6.10215e-15
6.06027e-15
5.99782e-15
5.90753e-15
5.78169e-15
5.61376e-15
5.40091e-15
5.14674e-15
4.86324e-15
4.57001e-15
4.29039e-15
5.25816e-15
5.25797e-15
5.25752e-15
5.25671e-15
5.25531e-15
5.25298e-15
5.24916e-15
5.24301e-15
5.23329e-15
5.21822e-15
5.19539e-15
5.16169e-15
5.11343e-15
5.0467e-15
4.95809e-15
4.84581e-15
4.71095e-15
4.55844e-15
4.39705e-15
4.23808e-15
4.77969e-15
4.77957e-15
4.7793e-15
4.7788e-15
4.77795e-15
4.77654e-15
4.77426e-15
4.77062e-15
4.76491e-15
4.75616e-15
4.74303e-15
4.72386e-15
4.69668e-15
4.65944e-15
4.61034e-15
4.54836e-15
4.47389e-15
4.38917e-15
4.29841e-15
4.20728e-15
4.51615e-15
4.51608e-15
4.5159e-15
4.51559e-15
4.51506e-15
4.51418e-15
4.51278e-15
4.51055e-15
4.5071e-15
4.50186e-15
4.49408e-15
4.48285e-15
4.46709e-15
4.44572e-15
4.41777e-15
4.38271e-15
4.34071e-15
4.2929e-15
4.24139e-15
4.18912e-15
4.36649e-15
4.36644e-15
4.36633e-15
4.36613e-15
4.36579e-15
4.36524e-15
4.36436e-15
4.36298e-15
4.36087e-15
4.35769e-15
4.35302e-15
4.34636e-15
4.33711e-15
4.32469e-15
4.30859e-15
4.28856e-15
4.26468e-15
4.23756e-15
4.20831e-15
4.17846e-15
4.28019e-15
4.28015e-15
4.28008e-15
4.27996e-15
4.27974e-15
4.2794e-15
4.27885e-15
4.27799e-15
4.2767e-15
4.27477e-15
4.27197e-15
4.26801e-15
4.26257e-15
4.25534e-15
4.24607e-15
4.23461e-15
4.22104e-15
4.20569e-15
4.18915e-15
4.17224e-15
4.2302e-15
4.23018e-15
4.23014e-15
4.23005e-15
4.22992e-15
4.2297e-15
4.22936e-15
4.22884e-15
4.22805e-15
4.22689e-15
4.22522e-15
4.22288e-15
4.21971e-15
4.21553e-15
4.21021e-15
4.2037e-15
4.19603e-15
4.1874e-15
4.17813e-15
4.16864e-15
4.20133e-15
4.20132e-15
4.20129e-15
4.20124e-15
4.20116e-15
4.20103e-15
4.20082e-15
4.2005e-15
4.20003e-15
4.19934e-15
4.19835e-15
4.19699e-15
4.19516e-15
4.19276e-15
4.18975e-15
4.18608e-15
4.18179e-15
4.17699e-15
4.17185e-15
4.16659e-15
4.18479e-15
4.18479e-15
4.18477e-15
4.18474e-15
4.18469e-15
4.18461e-15
4.18448e-15
4.18429e-15
4.18401e-15
4.18361e-15
4.18304e-15
4.18226e-15
4.18121e-15
4.17986e-15
4.17817e-15
4.17613e-15
4.17377e-15
4.17113e-15
4.16831e-15
4.16543e-15
4.17542e-15
4.17542e-15
4.17541e-15
4.17539e-15
4.17536e-15
4.17531e-15
4.17524e-15
4.17513e-15
4.17497e-15
4.17474e-15
4.17441e-15
4.17397e-15
4.17338e-15
4.17263e-15
4.1717e-15
4.17058e-15
4.16929e-15
4.16786e-15
4.16634e-15
4.16478e-15
4.17019e-15
4.17019e-15
4.17018e-15
4.17017e-15
4.17015e-15
4.17012e-15
4.17008e-15
4.17002e-15
4.16993e-15
4.1698e-15
4.16961e-15
4.16937e-15
4.16905e-15
4.16864e-15
4.16813e-15
4.16753e-15
4.16683e-15
4.16607e-15
4.16526e-15
4.16443e-15
4.16731e-15
4.1673e-15
4.1673e-15
4.16729e-15
4.16728e-15
4.16727e-15
4.16724e-15
4.16721e-15
4.16716e-15
4.16709e-15
4.16699e-15
4.16685e-15
4.16668e-15
4.16646e-15
4.16619e-15
4.16587e-15
4.1655e-15
4.1651e-15
4.16467e-15
4.16424e-15
4.16574e-15
4.16574e-15
4.16574e-15
4.16574e-15
4.16573e-15
4.16572e-15
4.16571e-15
4.16569e-15
4.16566e-15
4.16562e-15
4.16557e-15
4.1655e-15
4.16541e-15
4.16529e-15
4.16515e-15
4.16498e-15
4.16479e-15
4.16458e-15
4.16436e-15
4.16414e-15
4.16491e-15
4.16491e-15
4.16491e-15
4.16491e-15
4.16491e-15
4.1649e-15
4.16489e-15
4.16488e-15
4.16487e-15
4.16485e-15
4.16482e-15
4.16478e-15
4.16473e-15
4.16467e-15
4.1646e-15
4.16451e-15
4.16442e-15
4.16431e-15
4.1642e-15
4.16408e-15
4.16448e-15
4.16448e-15
4.16448e-15
4.16447e-15
4.16447e-15
4.16447e-15
4.16447e-15
4.16446e-15
4.16445e-15
4.16444e-15
4.16443e-15
4.16441e-15
4.16438e-15
4.16435e-15
4.16432e-15
4.16427e-15
4.16422e-15
4.16417e-15
4.16411e-15
4.16406e-15
4.16425e-15
4.16425e-15
4.16425e-15
4.16425e-15
4.16425e-15
4.16425e-15
4.16425e-15
4.16424e-15
4.16424e-15
4.16423e-15
4.16423e-15
4.16422e-15
4.1642e-15
4.16419e-15
4.16417e-15
4.16415e-15
4.16412e-15
4.1641e-15
4.16407e-15
4.16404e-15
4.16414e-15
4.16414e-15
4.16414e-15
4.16414e-15
4.16414e-15
4.16414e-15
4.16413e-15
4.16413e-15
4.16413e-15
4.16413e-15
4.16413e-15
4.16412e-15
4.16411e-15
4.16411e-15
4.1641e-15
4.16409e-15
4.16407e-15
4.16406e-15
4.16405e-15
4.16403e-15
4.16408e-15
4.16408e-15
4.16408e-15
4.16408e-15
4.16408e-15
4.16408e-15
4.16408e-15
4.16408e-15
4.16408e-15
4.16408e-15
4.16407e-15
4.16407e-15
4.16407e-15
4.16407e-15
4.16406e-15
4.16406e-15
4.16405e-15
4.16404e-15
4.16404e-15
4.16403e-15
4.16405e-15
4.16405e-15
4.16405e-15
4.16405e-15
4.16405e-15
4.16405e-15
4.16405e-15
4.16405e-15
4.16405e-15
4.16405e-15
4.16405e-15
4.16405e-15
4.16405e-15
4.16405e-15
4.16404e-15
4.16404e-15
4.16404e-15
4.16404e-15
4.16403e-15
4.16403e-15
4.16404e-15
4.16404e-15
4.16404e-15
4.16404e-15
4.16404e-15
4.16404e-15
4.16404e-15
4.16404e-15
4.16404e-15
4.16404e-15
4.16404e-15
4.16404e-15
4.16404e-15
4.16404e-15
4.16404e-15
4.16403e-15
4.16403e-15
4.16403e-15
4.16403e-15
4.16403e-15
4.16403e-15
4.16403e-15
4.16403e-15
4.16403e-15
4.16403e-15
4.16403e-15
4.16403e-15
4.16403e-15
4.16403e-15
4.16403e-15
4.16403e-15
4.16403e-15
4.16403e-15
4.16403e-15
4.16403e-15
4.16403e-15
4.16403e-15
4.16403e-15
4.16403e-15
4.16403e-15
4.16403e-15
4.16403e-15
4.16403e-15
4.16403e-15
4.16403e-15
4.16403e-15
4.16403e-15
4.16403e-15
4.16403e-15
4.16403e-15
4.16403e-15
4.16403e-15
4.16403e-15
4.16403e-15
4.16403e-15
4.16403e-15
4.16403e-15
4.16403e-15
4.16403e-15
4.16403e-15
4.16403e-15
4.16403e-15
4.16403e-15
4.16403e-15
4.16403e-15
4.16403e-15
4.16403e-15
4.16403e-15
4.16403e-15
4.16403e-15
4.16403e-15
4.16403e-15
4.16403e-15
4.16403e-15
4.16403e-15
4.16403e-15
4.16403e-15
4.16403e-15
4.16403e-15
4.16403e-15
4.16403e-15
4.16403e-15
4.16403e-15
4.16403e-15
4.16403e-15
4.16403e-15
4.16403e-15
4.16403e-15
4.16403e-15
4.16403e-15
4.16403e-15
4.16403e-15
4.16403e-15
4.16403e-15
4.16403e-15
4.16403e-15
4.16403e-15
4.16403e-15
4.16403e-15
4.16403e-15
4.16403e-15
4.16403e-15
4.16403e-15
4.16403e-15
4.16403e-15
4.16403e-15
4.16403e-15
4.16403e-15
4.16403e-15
4.16403e-15
4.16403e-15
4.16403e-15
4.16403e-15
4.16403e-15
4.16403e-15
4.16403e-15
4.16403e-15
4.16403e-15
4.16403e-15
4.16403e-15
4.16403e-15
4.16403e-15
4.16403e-15
4.16403e-15
4.16403e-15
4.16403e-15
4.16403e-15
4.16403e-15
4.16403e-15
4.16403e-15
4.16403e-15
4.16403e-15
4.16403e-15
4.16403e-15
4.16403e-15
4.16403e-15
4.16403e-15
4.16403e-15
4.16403e-15
4.16403e-15
4.16403e-15
4.16403e-15
4.16403e-15
4.16403e-15
4.16403e-15
4.16403e-15
4.16403e-15
4.16403e-15
4.16403e-15
4.16403e-15
4.16403e-15
4.16403e-15
4.16403e-15
4.16403e-15
4.16403e-15
4.16403e-15
4.16403e-15
4.16403e-15
4.16403e-15
4.16403e-15
4.16403e-15
4.16403e-15
4.16403e-15
4.16403e-15
4.16403e-15
4.16403e-15
4.16403e-15
4.16403e-15
4.16403e-15
4.16403e-15
4.16403e-15
4.16403e-15
4.16403e-15
4.16403e-15
4.16403e-15
4.16403e-15
4.16403e-15
4.16403e-15
4.16403e-15
4.16403e-15
4.16403e-15
4.16403e-15
4.16403e-15
4.16403e-15
4.16403e-15
4.16403e-15
4.16403e-15
4.16403e-15
4.16403e-15
4.16403e-15
4.16403e-15
4.16403e-15
4.16403e-15
4.16403e-15
4.16403e-15
4.16403e-15
4.16403e-15
4.16403e-15
4.16403e-15
4.16403e-15
4.16403e-15
4.16403e-15
4.16403e-15
4.16403e-15
4.16403e-15
4.16403e-15
4.16403e-15
4.16403e-15
4.16403e-15
4.16403e-15
4.16403e-15
4.16403e-15
4.16403e-15
4.16403e-15
4.16403e-15
4.16403e-15
4.16403e-15
4.16403e-15
4.16403e-15
4.16403e-15
4.16403e-15
4.16403e-15
4.16403e-15
4.16403e-15
4.16403e-15
4.16403e-15
4.16403e-15
4.16403e-15
4.16403e-15
4.16403e-15
4.16403e-15
4.16403e-15
4.16403e-15
4.16403e-15
4.16403e-15
4.16403e-15
4.16403e-15
4.16403e-15
4.16403e-15
4.16403e-15
4.16403e-15
4.16403e-15
4.16403e-15
4.16403e-15
4.16403e-15
4.16403e-15
4.16403e-15
4.16403e-15
4.16403e-15
4.16403e-15
4.16403e-15
4.16403e-15
4.16403e-15
4.16403e-15
4.16403e-15
4.16403e-15
4.16403e-15
4.16403e-15
4.16403e-15
4.16403e-15
4.16403e-15
4.16403e-15
4.16403e-15
4.16403e-15
4.16403e-15
4.16403e-15
4.16403e-15
4.16403e-15
4.16403e-15
4.16403e-15
4.16403e-15
4.16403e-15
4.16403e-15
4.16403e-15
4.16403e-15
4.16403e-15
4.16403e-15
4.16403e-15
4.16403e-15
4.16403e-15
4.16403e-15
4.16403e-15
4.16403e-15
4.16403e-15
4.16403e-15
4.16403e-15
4.16403e-15
4.16403e-15
4.16403e-15
4.16403e-15
4.16403e-15
4.16403e-15
4.16403e-15
4.16403e-15
4.16403e-15
4.16403e-15
4.16403e-15
4.16403e-15
4.16403e-15
4.16403e-15
4.16403e-15
4.16403e-15
4.16403e-15
4.16403e-15
4.16403e-15
4.16403e-15
4.16403e-15
4.16403e-15
4.16403e-15
4.16403e-15
4.16403e-15
4.16403e-15
4.16403e-15
4.16403e-15
4.16403e-15
4.16403e-15
4.16403e-15
4.16403e-15
4.16403e-15
4.16403e-15
4.16403e-15
4.16403e-15
4.16403e-15
4.16403e-15
4.16403e-15
4.16403e-15
4.16403e-15
4.16403e-15
4.16403e-15
4.16403e-15
4.16403e-15
4.16403e-15
4.16403e-15
4.16403e-15
4.16403e-15
4.16403e-15
4.16403e-15
4.16403e-15
4.16403e-15
4.16403e-15
4.16403e-15
4.16403e-15
4.16403e-15
4.16403e-15
4.16403e-15
4.16403e-15
4.16403e-15
4.16403e-15
4.16403e-15
4.16403e-15
4.16403e-15
4.16403e-15
4.16403e-15
4.16403e-15
4.16403e-15
4.16403e-15
4.16403e-15
4.16403e-15
4.16403e-15
4.16403e-15
)
;

boundaryField
{
    topWall
    {
        type            zeroGradient;
    }
    bottomWall
    {
        type            zeroGradient;
    }
    sideWallL
    {
        type            symmetry;
    }
    sideWallR
    {
        type            calculated;
        value           uniform 0;
    }
    frontAndBack
    {
        type            empty;
    }
}


// ************************************************************************* //
