/*--------------------------------*- C++ -*----------------------------------*\
  =========                 |
  \\      /  F ield         | OpenFOAM: The Open Source CFD Toolbox
   \\    /   O peration     | Website:  https://openfoam.org
    \\  /    A nd           | Version:  7
     \\/     M anipulation  |
\*---------------------------------------------------------------------------*/
FoamFile
{
    version     2.0;
    format      ascii;
    class       volScalarField;
    location    "8";
    object      T;
}
// * * * * * * * * * * * * * * * * * * * * * * * * * * * * * * * * * * * * * //

dimensions      [0 0 0 1 0 0 0];

internalField   nonuniform List<scalar> 
900
(
342.682
342.681
342.681
342.68
342.678
342.675
342.671
342.663
342.649
342.627
342.591
342.53
342.427
342.25
341.939
341.368
340.235
337.716
331.134
310.516
326.104
326.103
326.102
326.099
326.094
326.086
326.073
326.05
326.013
325.951
325.849
325.68
325.398
324.925
324.116
322.701
320.148
315.359
306.075
288.12
312.946
312.945
312.943
312.938
312.931
312.919
312.899
312.865
312.809
312.717
312.567
312.323
311.923
311.268
310.193
308.414
305.459
300.56
292.607
280.555
302.638
302.637
302.634
302.629
302.62
302.605
302.58
302.539
302.472
302.363
302.187
301.905
301.455
300.742
299.614
297.849
295.121
291.008
285.09
277.307
294.676
294.674
294.671
294.665
294.656
294.639
294.612
294.568
294.497
294.383
294.203
293.919
293.476
292.796
291.761
290.219
287.973
284.826
280.662
275.633
288.616
288.615
288.612
288.606
288.596
288.58
288.553
288.51
288.441
288.332
288.163
287.902
287.505
286.911
286.041
284.797
283.072
280.785
277.932
274.664
284.077
284.076
284.073
284.067
284.058
284.043
284.018
283.979
283.917
283.82
283.672
283.448
283.115
282.631
281.943
280.992
279.728
278.12
276.197
274.068
280.732
280.731
280.728
280.723
280.715
280.702
280.68
280.646
280.593
280.512
280.389
280.208
279.943
279.568
279.049
278.353
277.456
276.353
275.073
273.688
278.309
278.308
278.305
278.301
278.294
278.283
278.265
278.237
278.194
278.13
278.033
277.892
277.691
277.412
277.035
276.542
275.923
275.181
274.339
273.443
276.584
276.583
276.581
276.578
276.572
276.563
276.549
276.527
276.494
276.444
276.371
276.266
276.119
275.919
275.653
275.314
274.896
274.406
273.859
273.283
275.378
275.378
275.376
275.374
275.369
275.362
275.351
275.335
275.31
275.273
275.22
275.144
275.04
274.901
274.719
274.491
274.215
273.896
273.545
273.18
274.551
274.55
274.549
274.547
274.544
274.539
274.531
274.519
274.501
274.475
274.437
274.384
274.313
274.218
274.097
273.947
273.769
273.565
273.343
273.113
273.994
273.993
273.993
273.991
273.989
273.985
273.979
273.971
273.958
273.94
273.914
273.879
273.831
273.768
273.69
273.593
273.479
273.351
273.212
273.07
273.625
273.625
273.625
273.624
273.622
273.619
273.615
273.609
273.601
273.589
273.571
273.548
273.517
273.477
273.426
273.366
273.295
273.215
273.13
273.043
273.387
273.386
273.386
273.385
273.384
273.382
273.38
273.376
273.37
273.362
273.351
273.336
273.316
273.291
273.259
273.222
273.178
273.13
273.078
273.026
273.235
273.235
273.234
273.234
273.233
273.232
273.23
273.228
273.224
273.219
273.212
273.202
273.19
273.174
273.155
273.132
273.106
273.077
273.047
273.015
273.14
273.14
273.14
273.139
273.139
273.138
273.137
273.135
273.133
273.13
273.126
273.12
273.112
273.103
273.091
273.078
273.062
273.045
273.027
273.009
273.082
273.082
273.082
273.082
273.081
273.081
273.08
273.079
273.078
273.076
273.073
273.07
273.065
273.06
273.053
273.045
273.036
273.026
273.016
273.005
273.047
273.047
273.047
273.047
273.047
273.046
273.046
273.045
273.045
273.043
273.042
273.04
273.037
273.034
273.03
273.025
273.02
273.015
273.009
273.003
273.027
273.027
273.027
273.026
273.026
273.026
273.026
273.026
273.025
273.024
273.024
273.022
273.021
273.019
273.017
273.014
273.011
273.008
273.005
273.002
273.015
273.015
273.015
273.015
273.015
273.014
273.014
273.014
273.014
273.013
273.013
273.012
273.011
273.01
273.009
273.008
273.006
273.004
273.003
273.001
273.008
273.008
273.008
273.008
273.008
273.008
273.008
273.008
273.008
273.007
273.007
273.007
273.006
273.006
273.005
273.004
273.003
273.002
273.001
273
273.004
273.004
273.004
273.004
273.004
273.004
273.004
273.004
273.004
273.004
273.004
273.004
273.003
273.003
273.003
273.002
273.002
273.001
273.001
273
273.002
273.002
273.002
273.002
273.002
273.002
273.002
273.002
273.002
273.002
273.002
273.002
273.002
273.002
273.001
273.001
273.001
273.001
273
273
273.001
273.001
273.001
273.001
273.001
273.001
273.001
273.001
273.001
273.001
273.001
273.001
273.001
273.001
273.001
273.001
273
273
273
273
273.001
273.001
273.001
273.001
273.001
273.001
273.001
273.001
273.001
273.001
273.001
273
273
273
273
273
273
273
273
273
273
273
273
273
273
273
273
273
273
273
273
273
273
273
273
273
273
273
273
273
273
273
273
273
273
273
273
273
273
273
273
273
273
273
273
273
273
273
273
273
273
273
273
273
273
273
273
273
273
273
273
273
273
273
273
273
273
273
273
273
273
273
273
273
273
273
273
273
273
273
273
273
273
273
273
273
273
273
273
273
273
273
273
273
273
273
273
273
273
273
273
273
273
273
273
273
273
273
273
273
273
273
273
273
273
273
273
273
273
273
273
273
273
273
273
273
273
273
273
273
273
273
273
273
273
273
273
273
273
273
273
273
273
273
273
273
273
273
273
273
273
273
273
273
273
273
273
273
273
273
273
273
273
273
273
273
273
273
273
273
273
273
273
273
273
273
273
273
273
273
273
273
273
273
273
273
273
273
273
273
273
273
273
273
273
273
273
273
273
273
273
273
273
273
273
273
273
273
273
273
273
273
273
273
273
273
273
273
273
273
273
273
273
273
273
273
273
273
273
273
273
273
273
273
273
273
273
273
273
273
273
273
273
273
273
273
273
273
273
273
273
273
273
273
273
273
273
273
273
273
273
273
273
273
273
273
273
273
273
273
273
273
273
273
273
273
273
273
273
273
273
273
273
273
273
273
273
273
273
273
273
273
273
273
273
273
273
273
273
273
273
273
273
273
273
273
273
273
273
273
273
273
273
273
273
273
273
273
273
273
273
273
273
273
273
273
273
273
273
273
273
273
273
273
273
273
273
273
273
273
273
273
273
273
273
273
273
273
273
273
273
273
273
273
273
273
273
273
273
273
273
273
273
273
273
273
273
273
273
273
273
273
273
273
273
273
273
273
273
273
273
273
273
273
273
273
273
273
273
273
)
;

boundaryField
{
    topWall
    {
        type            zeroGradient;
    }
    bottomWall
    {
        type            codedFixedValue;
        value           uniform 353;
        name            heating;
        code            #{
            const scalar t = this->db().time().value();
            const scalar Ttemp = 273 + 10*t;
            operator==(Ttemp);
        #};
    }
    sideWallL
    {
        type            symmetry;
    }
    sideWallR
    {
        type            fixedValue;
        value           uniform 273;
    }
    frontAndBack
    {
        type            empty;
    }
}


// ************************************************************************* //
