/*--------------------------------*- C++ -*----------------------------------*\
  =========                 |
  \\      /  F ield         | OpenFOAM: The Open Source CFD Toolbox
   \\    /   O peration     | Website:  https://openfoam.org
    \\  /    A nd           | Version:  7
     \\/     M anipulation  |
\*---------------------------------------------------------------------------*/
FoamFile
{
    version     2.0;
    format      ascii;
    class       volScalarField;
    location    "28";
    object      gradTy;
}
// * * * * * * * * * * * * * * * * * * * * * * * * * * * * * * * * * * * * * //

dimensions      [0 -1 0 1 0 0 0];

internalField   nonuniform List<scalar> 
900
(
-197207
-197370
-197707
-198241
-199009
-200066
-201491
-203394
-205935
-209338
-213938
-220233
-229004
-241519
-259963
-288368
-334848
-417466
-581060
-947846
-172098
-172246
-172554
-173040
-173736
-174691
-175972
-177670
-179917
-182894
-186856
-192169
-199361
-209201
-222793
-241614
-267097
-298017
-318298
-246057
-150252
-150381
-150645
-151061
-151654
-152459
-153528
-154925
-156740
-159088
-162117
-166012
-170981
-177222
-184772
-193105
-200031
-198963
-173034
-87724.7
-131117
-131220
-131431
-131762
-132228
-132853
-133667
-134706
-136014
-137638
-139621
-141981
-144669
-147478
-149844
-150464
-146576
-132866
-100651
-40709.1
-114068
-114144
-114298
-114535
-114865
-115296
-115840
-116506
-117298
-118206
-119192
-120159
-120907
-121041
-119827
-115971
-107351
-90877.1
-63106.2
-22891.9
-98883.7
-98931.2
-99026.9
-99171.5
-99365.4
-99607.4
-99892.4
-100208
-100528
-100805
-100948
-100805
-100116
-98458.6
-95167
-89251.8
-79373.2
-64016.8
-42138.8
-14535.4
-85388
-85409.2
-85450.4
-85508.5
-85577.8
-85648.6
-85704.2
-85717.1
-85643.1
-85411.7
-84912.8
-83977.4
-82351.8
-79667.1
-75410.5
-68920.1
-59446.2
-46350.6
-29517.9
-9938.65
-73428.2
-73426.1
-73419.3
-73402.1
-73364.5
-73291
-73157.8
-72929.1
-72552
-71949
-71008.6
-69573.3
-67425.9
-64279.3
-59775
-53507.9
-45098.9
-34340.1
-21415.2
-7119.84
-62866.8
-62845.4
-62799.1
-62720.6
-62597.3
-62410.7
-62133.7
-61727.6
-61138.3
-60291.1
-59085.1
-57386.7
-55025.2
-51792.9
-47455.8
-41783.7
-34607.9
-25911.6
-15937.4
-5260.26
-53578.4
-53542.1
-53465.6
-53340.6
-53153.8
-52885.7
-52508.9
-51985.6
-51265.4
-50282.1
-48950.5
-47164.5
-44797.5
-41707.2
-37749.4
-32803.2
-26811.1
-19830.5
-12082.4
-3969.77
-45446.7
-45399.8
-45302
-45145.1
-44915.9
-44595.6
-44158.2
-43569.7
-42785.8
-41751
-40397
-38643.6
-36400.8
-33575.5
-30083.6
-25868.8
-20928.3
-15340.1
-9284.02
-3041.07
-38362.3
-38308.8
-38198.1
-38022.3
-37769.3
-37421.8
-36956.9
-36345
-35549.1
-34524.5
-33218.9
-31573.6
-29527
-27020.7
-24009.1
-20472.1
-16430.7
-11961.4
-7203.65
-2354.57
-32222.2
-32165.7
-32049.1
-31865.5
-31604.1
-31249.8
-30783
-30179.1
-29408.5
-28436.2
-27223.2
-25728.2
-23910.2
-21734.5
-19178.8
-16242.1
-12953.9
-9380.67
-5628.48
-1836.81
-26929.2
-26872.3
-26755.6
-26572.9
-26315
-25969.4
-25519.6
-24946.1
-24225.4
-23331.2
-22235.3
-20909.1
-19326.5
-17468.1
-15325.4
-12906.7
-10241.9
-7386.02
-4418.96
-1440.36
-22391.3
-22336.3
-22223.7
-22048.5
-21803
-21476.8
-21057
-20527.9
-19871.9
-19069.4
-18100.5
-16946
-15590.1
-14022.8
-12243.4
-10263.9
-8111.42
-5830.24
-3480.24
-1133.32
-18522.7
-18471.1
-18365.7
-18202.5
-17975.1
-17675.5
-17293.3
-16816.7
-16232.3
-15526.2
-14684.4
-13694.7
-12547.8
-11239.7
-9773.59
-8162.12
-6428.8
-4608.39
-2745.85
-893.493
-15243.3
-15196
-15099.8
-14951.3
-14745.6
-14476.3
-14135.6
-13714.5
-13203.3
-12592
-11871.4
-11033.7
-10074
-8991.74
-7791.92
-6486.4
-5094.7
-3643.98
-2167.98
-705.016
-12479.2
-12436.8
-12350.7
-12218.3
-12035.9
-11798.3
-11499.9
-11134
-10693.5
-10171.7
-9562.45
-8861.13
-8065.61
-7177.12
-6201.15
-5148.22
-4034.21
-2880.15
-1711.42
-556.256
-10162.9
-10125.6
-10049.9
-9933.89
-9774.67
-9568.54
-9311.14
-8997.67
-8623.24
-8183.2
-7673.7
-7092.21
-6438.23
-5713.85
-4924.42
-4078.88
-3189.96
-2273.88
-1349.76
-438.516
-8232.91
-8200.55
-8135.07
-8034.99
-7898.13
-7721.77
-7502.73
-7237.62
-6923.05
-6555.96
-6134.04
-5656.09
-5122.51
-4535.73
-3900.57
-3224.47
-2517.52
-1792.19
-1062.9
-345.188
-6634.11
-6606.46
-6550.6
-6465.42
-6349.33
-6200.35
-6016.21
-5794.54
-5533.06
-5229.83
-4883.53
-4493.8
-4061.51
-3589.06
-3080.66
-2542.36
-1982.09
-1409.44
-835.272
-271.176
-5317.32
-5294
-5246.94
-5175.33
-5078.04
-4953.64
-4800.53
-4617.11
-4401.87
-4153.63
-3871.74
-3556.3
-3208.38
-2830.21
-2425.32
-1998.59
-1556.22
-1105.54
-654.745
-212.507
-4239.08
-4219.63
-4180.44
-4120.93
-4040.29
-3937.5
-3811.49
-3661.16
-3485.58
-3284.06
-3056.36
-2802.85
-2524.61
-2223.61
-1902.77
-1565.98
-1218.04
-864.57
-511.747
-166.053
-3361.28
-3345.25
-3312.96
-3264.02
-3197.85
-3113.76
-3011.02
-2888.92
-2746.89
-2584.58
-2402
-2199.63
-1978.48
-1740.23
-1487.26
-1222.65
-950.097
-673.889
-398.685
-129.338
-2650.83
-2637.74
-2611.4
-2571.54
-2517.77
-2449.61
-2366.58
-2268.24
-2154.27
-2024.52
-1879.15
-1718.64
-1543.91
-1356.37
-1157.92
-950.964
-738.367
-523.378
-309.507
-100.388
-2079.16
-2068.58
-2047.3
-2015.13
-1971.82
-1917.05
-1850.51
-1771.95
-1681.18
-1578.21
-1463.24
-1336.74
-1199.51
-1052.68
-897.786
-736.684
-571.576
-404.923
-239.366
-77.6247
-1621.86
-1613.37
-1596.33
-1570.6
-1536.01
-1492.36
-1439.47
-1377.18
-1305.43
-1224.27
-1133.94
-1034.86
-927.702
-813.382
-693.095
-568.287
-440.637
-312.007
-184.378
-59.7832
-1258.18
-1251.43
-1237.9
-1217.49
-1190.09
-1155.58
-1113.85
-1064.83
-1008.51
-944.986
-874.471
-797.34
-714.142
-625.613
-532.683
-436.464
-338.232
-239.39
-141.424
-45.8492
-970.65
-965.333
-954.67
-938.606
-917.074
-890
-857.325
-819.022
-775.119
-725.719
-671.021
-611.338
-547.115
-478.932
-407.509
-333.698
-258.464
-182.861
-108
-35.009
-744.666
-740.508
-732.173
-719.629
-702.834
-681.749
-656.346
-626.626
-592.633
-554.467
-512.301
-466.395
-417.102
-364.876
-310.271
-253.935
-196.595
-139.041
-82.1001
-26.6103
-568.101
-564.873
-558.408
-548.684
-535.681
-519.377
-499.767
-476.864
-450.717
-421.418
-389.114
-354.013
-316.395
-276.612
-235.087
-192.309
-148.824
-105.223
-62.1181
-20.1317
-430.961
-428.475
-423.496
-416.014
-406.018
-393.5
-378.465
-360.934
-340.953
-318.603
-294.005
-267.325
-238.781
-208.644
-177.235
-144.921
-112.111
-79.243
-46.7723
-15.157
-325.073
-323.172
-319.365
-313.649
-306.018
-296.474
-285.024
-271.693
-256.523
-239.58
-220.964
-200.805
-179.271
-156.568
-132.939
-108.659
-84.031
-59.3805
-35.0427
-11.355
-243.797
-242.353
-239.463
-235.126
-229.342
-222.114
-213.453
-203.382
-191.938
-179.175
-165.171
-150.03
-133.878
-116.872
-99.1939
-81.0483
-62.6603
-44.2688
-26.1208
-8.46335
-181.776
-180.687
-178.508
-175.241
-170.886
-165.45
-158.942
-151.384
-142.806
-133.252
-122.783
-111.478
-99.4347
-86.7694
-73.6178
-60.1317
-46.4769
-32.8288
-19.3679
-6.27495
-134.719
-133.904
-132.273
-129.829
-126.573
-122.512
-117.656
-112.021
-105.633
-98.527
-90.7499
-82.3615
-73.4353
-64.0585
-54.3313
-44.3656
-34.2828
-24.211
-14.2819
-4.62689
-99.2119
-98.6059
-97.3945
-95.579
-93.1624
-90.1502
-86.5514
-82.3797
-77.6552
-72.4053
-66.6657
-60.4817
-53.908
-47.0093
-39.8591
-32.5395
-25.1389
-17.7506
-10.4698
-3.39168
-72.5535
-72.1066
-71.2135
-69.8756
-68.0958
-65.8788
-63.2321
-60.1668
-56.6985
-52.8481
-48.6428
-44.1162
-39.3089
-34.2683
-29.0483
-23.7084
-18.3127
-12.9286
-7.62491
-2.46997
-52.6184
-52.2919
-51.6395
-50.6626
-49.3636
-47.7465
-45.8172
-43.5846
-41.0606
-38.261
-35.2059
-31.9204
-28.434
-24.7813
-21.0013
-17.1371
-13.2346
-9.34231
-5.5093
-1.78457
-37.7417
-37.506
-37.035
-36.33
-35.393
-34.2272
-32.8372
-31.2297
-29.4138
-27.4011
-25.2065
-22.8481
-20.3475
-17.7294
-15.0219
-12.2556
-9.46329
-6.67932
-3.93858
-1.27574
-26.6208
-26.4536
-26.1196
-25.6197
-24.9555
-24.1295
-23.1453
-22.0077
-20.7235
-19.301
-17.7511
-16.0866
-14.3228
-12.4774
-10.5699
-8.62205
-6.65672
-4.69792
-2.77002
-0.8972
-18.2342
-18.1191
-17.8893
-17.5453
-17.0885
-16.5207
-15.8443
-15.063
-14.1813
-13.2054
-12.1426
-11.0019
-9.79383
-8.53046
-7.22525
-5.89294
-4.54917
-3.21025
-1.89274
-0.613036
-11.7732
-11.6986
-11.5496
-11.3268
-11.0309
-10.6631
-10.2253
-9.71974
-9.14952
-8.51858
-7.83179
-7.09498
-6.31499
-5.49962
-4.65758
-3.79833
-2.93193
-2.06886
-1.21973
-0.395047
-6.58357
-6.54174
-6.45823
-6.33332
-6.16749
-5.96144
-5.71617
-5.43302
-5.11377
-4.76063
-4.37635
-3.96421
-3.52805
-3.07223
-2.60162
-2.1215
-1.63749
-1.15541
-0.681166
-0.220613
-2.11646
-2.10299
-2.07611
-2.03591
-1.98253
-1.91622
-1.8373
-1.74621
-1.64351
-1.52994
-1.40636
-1.27385
-1.13363
-0.987123
-0.835877
-0.681593
-0.526073
-0.371186
-0.218828
-0.0708726
)
;

boundaryField
{
    topWall
    {
        type            calculated;
        value           uniform 0;
    }
    bottomWall
    {
        type            calculated;
        value           nonuniform List<scalar> 
20
(
-210593
-210761
-211109
-211662
-212456
-213551
-215028
-217005
-219650
-223205
-228027
-234664
-243983
-257442
-277669
-309912
-366125
-478255
-746611
-1.52598e+06
)
;
    }
    sideWallL
    {
        type            symmetry;
    }
    sideWallR
    {
        type            calculated;
        value           nonuniform List<scalar> 
45
(
-947846
-246057
-87724.7
-40709.1
-22891.9
-14535.4
-9938.65
-7119.84
-5260.26
-3969.77
-3041.07
-2354.57
-1836.81
-1440.36
-1133.32
-893.493
-705.016
-556.256
-438.516
-345.188
-271.176
-212.507
-166.053
-129.338
-100.388
-77.6247
-59.7832
-45.8492
-35.009
-26.6103
-20.1317
-15.157
-11.355
-8.46335
-6.27495
-4.62689
-3.39168
-2.46997
-1.78457
-1.27574
-0.8972
-0.613036
-0.395047
-0.220613
-0.0708726
)
;
    }
    frontAndBack
    {
        type            empty;
    }
}


// ************************************************************************* //
