/*--------------------------------*- C++ -*----------------------------------*\
  =========                 |
  \\      /  F ield         | OpenFOAM: The Open Source CFD Toolbox
   \\    /   O peration     | Website:  https://openfoam.org
    \\  /    A nd           | Version:  7
     \\/     M anipulation  |
\*---------------------------------------------------------------------------*/
FoamFile
{
    version     2.0;
    format      ascii;
    class       volScalarField;
    location    "28";
    object      gradTx;
}
// * * * * * * * * * * * * * * * * * * * * * * * * * * * * * * * * * * * * * //

dimensions      [0 -1 0 1 0 0 0];

internalField   nonuniform List<scalar> 
900
(
-42.1029
-129.167
-225.075
-336.662
-472.327
-643.015
-863.669
-1155.5
-1549.75
-2094.15
-2864.78
-3989.13
-5694.62
-8421.49
-13117.4
-22113.8
-42085.8
-95121.7
-261930
-831853
-120.957
-370.977
-646.062
-965.506
-1352.9
-1838.79
-2464.49
-3288.1
-4393.99
-5908.93
-8030.21
-11077.3
-15591.5
-22537.5
-33731.3
-52770.7
-87011.9
-151091
-268451
-439240
-190.948
-585.336
-1018.29
-1519.29
-2124.04
-2878.21
-3842.66
-5101.35
-6773.45
-9032.81
-12139.7
-16494.1
-22726.7
-31853.6
-45530.2
-66417.6
-98489.4
-146323
-209970
-267499
-249.27
-763.55
-1326.32
-1974.31
-2751.39
-3712.71
-4930.24
-6500.71
-8557.2
-11286.3
-14953.5
-19941.3
-26802.4
-36328.5
-49613.5
-68029.1
-92870.5
-124093
-157212
-178482
-294.097
-900.03
-1560.48
-2316.25
-3215.29
-4316.56
-5695.03
-7448.31
-9705.63
-12639.8
-16482.4
-21542.6
-28224
-37028.6
-48516.5
-63149.4
-80891.4
-100398
-117813
-126139
-324.763
-992.826
-1717.69
-2541.3
-3512
-4687.78
-6140.15
-7958.87
-10257.6
-13180.2
-16906.8
-21657
-27684
-35247.7
-44543.7
-55553.5
-67776.4
-79848.6
-89226.9
-92483.9
-341.649
-1043.24
-1800.72
-2654.73
-3651.16
-4843.55
-6295.68
-8084.4
-10302.2
-13059.3
-16482.6
-20710.7
-25877.8
-32079.6
-39309.7
-47355.7
-55656.4
-63163.1
-68331.2
-69464.4
-345.983
-1055.19
-1816.91
-2668.73
-3652.15
-4814.16
-6208.68
-7897.8
-9952.15
-12449.8
-15472.5
-19096.1
-23373.8
-28306.3
-33796.6
-39589.2
-45206.8
-49920.3
-52814.9
-53027.4
-339.589
-1034.41
-1776.71
-2599.92
-3540.12
-4636.86
-5933.76
-7478.54
-9322.1
-11515.9
-14106.9
-17128
-20583.8
-24428.6
-28538.3
-32679.6
-36488.6
-39479.4
-41110.9
-40929.3
-324.612
-987.57
-1692.07
-2466.89
-3342.34
-4350.58
-5525.54
-6902.36
-8515.67
-10396.7
-12568.1
-15036.2
-17779.9
-20736.9
-23787.4
-26741.2
-29334.8
-31249.9
-32163.5
-31829.7
-303.283
-921.564
-1575.17
-2288.17
-3085.31
-3991.94
-5033.6
-6235.09
-7618.61
-9200.97
-10989.3
-12975
-15126.5
-17380.5
-19634.2
-21741.3
-23515.9
-24750.7
-25250.2
-24877.2
-277.724
-842.916
-1437.39
-2080.79
-2792.8
-3592.89
-4499.69
-5529.96
-6696.94
-8007.86
-9460.69
-11039.9
-12711.8
-14419.8
-16080.8
-17585.9
-18806
-19605.6
-19864.5
-19504.6
-249.821
-757.386
-1288.68
-1859.38
-2484.8
-3179.51
-3956.73
-4827.27
-5798.19
-6870.8
-8038.32
-9283.08
-10573.7
-11862.7
-13085.6
-14162.9
-15005.2
-15523.6
-15643.4
-15318.9
-221.149
-669.758
-1137.21
-1635.75
-2177.06
-2771.81
-3429.08
-4155.47
-4954
-5822.63
-6752.65
-7726.89
-8718.17
-9688.31
-10588.4
-11361.1
-11944.6
-12280.2
-12320.7
-12039.3
-192.947
-583.772
-989.281
-1418.87
-1881.26
-2384.1
-2933.44
-3533.01
-4183.32
-4880.7
-5616.17
-6374.36
-7132.77
-7861.54
-8524.14
-9079.32
-9484.55
-9700.72
-9697.71
-9459.62
-166.124
-502.161
-849.44
-1215.04
-1605.37
-2025.79
-2480.18
-2970.36
-3495.47
-4051.22
-4629.26
-5216.53
-5794.97
-6341.62
-6829.47
-7229.06
-7510.96
-7648.99
-7623.75
-7425.74
-141.299
-426.757
-720.681
-1028.32
-1354.29
-1702.27
-2074.63
-2471.99
-2892.8
-3332.82
-3784.72
-4237.76
-4677.76
-5087.3
-5446.57
-5734.53
-5930.81
-6017.78
-5982.82
-5820.27
-118.835
-358.631
-604.703
-860.877
-1130.42
-1415.8
-1718.35
-2038.01
-2372.95
-2719.32
-3070.93
-3419.17
-3753.06
-4059.54
-4324.13
-4531.85
-4668.54
-4722.26
-4684.78
-4552.74
-98.8974
-298.249
-502.181
-713.438
-934.293
-1166.34
-1410.25
-1665.59
-1930.54
-2201.74
-2474.13
-2740.93
-2993.74
-3222.84
-3417.67
-3567.59
-3662.73
-3694.98
-3658.93
-3552.6
-81.4984
-245.618
-413.028
-585.667
-765.082
-952.263
-1147.48
-1350.11
-1558.48
-1769.77
-1979.94
-2183.7
-2374.7
-2545.74
-2689.16
-2797.39
-2863.53
-2882.07
-2849.42
-2764.46
-66.5397
-200.416
-336.621
-476.497
-621.073
-770.936
-926.103
-1085.91
-1248.89
-1412.74
-1574.26
-1729.4
-1873.38
-2000.9
-2106.42
-2184.54
-2230.45
-2240.36
-2211.93
-2144.52
-53.8505
-162.108
-271.986
-384.399
-500.011
-619.141
-741.669
-866.955
-993.768
-1120.25
-1243.91
-1361.67
-1469.96
-1564.89
-1642.46
-1698.82
-1730.61
-1735.24
-1711.15
-1658.01
-43.2172
-130.034
-217.959
-307.6
-399.374
-493.427
-589.575
-687.24
-785.408
-882.611
-976.931
-1066.04
-1147.3
-1217.84
-1274.8
-1315.43
-1337.39
-1338.89
-1318.9
-1277.27
-34.4062
-103.476
-173.29
-244.241
-316.578
-390.344
-465.333
-541.044
-616.66
-691.034
-762.701
-829.919
-890.73
-943.057
-984.822
-1014.09
-1029.21
-1028.95
-1012.64
-980.214
-27.1807
-81.7124
-136.731
-192.486
-249.114
-306.599
-364.737
-423.111
-481.069
-537.726
-591.974
-642.513
-687.902
-726.632
-757.211
-778.264
-788.634
-787.479
-774.349
-749.244
-21.313
-64.0487
-107.096
-150.604
-194.64
-239.157
-283.969
-328.734
-372.941
-415.912
-456.815
-494.684
-528.466
-557.066
-579.414
-594.536
-601.621
-600.089
-589.647
-570.319
-16.5916
-49.843
-83.2866
-117.008
-151.03
-185.294
-219.636
-253.782
-287.336
-319.783
-350.501
-378.779
-403.846
-424.911
-441.211
-452.054
-456.873
-455.269
-447.051
-432.253
-12.8254
-38.5171
-64.3221
-90.2848
-116.403
-142.616
-168.785
-194.694
-220.038
-244.429
-267.404
-288.443
-306.984
-322.458
-334.319
-342.079
-345.34
-343.83
-337.423
-326.157
-9.84616
-29.5616
-49.3396
-69.1987
-89.1245
-109.058
-128.887
-148.442
-167.491
-185.742
-202.856
-218.45
-232.118
-243.452
-252.062
-257.603
-259.799
-258.462
-253.51
-244.98
-7.50827
-22.5367
-37.5957
-52.6891
-67.7967
-82.8662
-97.8075
-112.489
-126.735
-140.33
-153.023
-164.537
-174.577
-182.853
-189.086
-193.034
-194.503
-193.366
-189.571
-183.148
-5.68779
-17.0684
-28.4604
-39.8596
-51.2442
-62.57
-73.7653
-84.7293
-95.3308
-105.41
-114.784
-123.251
-130.6
-136.622
-141.121
-143.927
-144.905
-143.966
-141.079
-136.27
-4.28081
-12.8435
-21.4067
-29.9623
-38.4897
-46.9523
-55.2943
-63.439
-71.2887
-78.7263
-85.618
-91.8185
-97.1769
-101.544
-104.782
-106.771
-107.417
-106.66
-104.48
-100.898
-3.20134
-9.60293
-15.9994
-22.3814
-28.7306
-35.0174
-41.1988
-47.217
-52.9999
-58.4618
-63.5058
-68.0275
-71.9191
-75.0751
-77.3978
-78.8032
-79.2267
-78.6278
-76.9934
-74.3404
-2.37906
-7.13512
-11.8836
-16.6154
-21.3148
-25.9585
-30.5136
-34.9371
-39.1758
-43.1675
-46.8423
-50.1254
-52.9403
-55.2124
-56.8728
-57.8631
-58.1387
-57.6718
-56.4548
-54.5006
-1.75713
-5.269
-8.77279
-12.2601
-15.7183
-19.1289
-22.4673
-25.7014
-28.7926
-31.6956
-34.3606
-36.734
-38.7617
-40.3911
-41.574
-42.2696
-42.4473
-42.0883
-41.1879
-39.7563
-1.29004
-3.8678
-6.43791
-8.99321
-11.5235
-14.0147
-16.4482
-18.8006
-21.0436
-23.1449
-25.0686
-26.7769
-28.2315
-29.3954
-30.2351
-30.7223
-30.8357
-30.5628
-29.901
-28.8577
-0.941764
-2.8232
-4.69792
-6.55998
-8.40139
-10.2114
-11.9763
-13.6788
-15.2987
-16.8126
-18.1951
-19.4195
-20.4587
-21.2871
-21.881
-22.2211
-22.2927
-22.0875
-21.6038
-20.8474
-0.68403
-2.05031
-3.41094
-4.76115
-6.09474
-7.40366
-8.67771
-9.90444
-11.0692
-12.1554
-13.145
-14.0192
-14.7591
-15.3465
-15.7654
-16.0021
-16.0467
-15.8937
-15.5421
-14.9962
-0.494899
-1.48323
-2.46696
-3.44232
-4.40458
-5.34771
-6.26425
-7.14517
-7.97998
-8.7569
-9.46318
-10.0856
-10.6108
-11.0264
-11.3211
-11.4856
-11.513
-11.3997
-11.1451
-10.7526
-0.357529
-1.07141
-1.78161
-2.48521
-3.17859
-3.85731
-4.51588
-5.14779
-5.74554
-6.30075
-6.80443
-7.24725
-7.61999
-7.9139
-8.12117
-8.2354
-8.25196
-8.16834
-7.98438
-7.70237
-0.25916
-0.776544
-1.29102
-1.80031
-2.3017
-2.79186
-3.26678
-3.72174
-4.15135
-4.54965
-4.91024
-5.22656
-5.49214
-5.70084
-5.84725
-5.92694
-5.93673
-5.87494
-5.74155
-5.53823
-0.190297
-0.570144
-0.947682
-1.32114
-1.68844
-2.04708
-2.39408
-2.72597
-3.03885
-3.32838
-3.59
-3.81901
-4.01078
-4.161
-4.26583
-4.32218
-4.32782
-4.28164
-4.18366
-4.03515
-0.144061
-0.431575
-0.71722
-0.999584
-1.27703
-1.54762
-1.80907
-2.05879
-2.29381
-2.51092
-2.70673
-2.87779
-3.02068
-3.13226
-3.20973
-3.25086
-3.25405
-3.21852
-3.14433
-3.03245
-0.1157
-0.346585
-0.575885
-0.802417
-1.02482
-1.24152
-1.45068
-1.65018
-1.83769
-2.01065
-2.1664
-2.30221
-2.41543
-2.50359
-2.56454
-2.59653
-2.59836
-2.56944
-2.50985
-2.42038
-0.102237
-0.30624
-0.508797
-0.708838
-0.905142
-1.09629
-1.28066
-1.45639
-1.62141
-1.7735
-1.91031
-2.02948
-2.1287
-2.20583
-2.25901
-2.28672
-2.28795
-2.26219
-2.20954
-2.13068
)
;

boundaryField
{
    topWall
    {
        type            calculated;
        value           nonuniform List<scalar> 
20
(
-0.102237
-0.30624
-0.508797
-0.708838
-0.905142
-1.09629
-1.28066
-1.45639
-1.62141
-1.7735
-1.91031
-2.02948
-2.1287
-2.20583
-2.25901
-2.28672
-2.28795
-2.26219
-2.20954
-2.13068
)
;
    }
    bottomWall
    {
        type            calculated;
        value           nonuniform List<scalar> 
20
(
-42.1029
-129.167
-225.075
-336.662
-472.327
-643.015
-863.669
-1155.5
-1549.75
-2094.15
-2864.78
-3989.13
-5694.62
-8421.49
-13117.4
-22113.8
-42085.8
-95121.7
-261930
-831853
)
;
    }
    sideWallL
    {
        type            symmetry;
    }
    sideWallR
    {
        type            calculated;
        value           nonuniform List<scalar> 
45
(
-1.27402e+06
-534590
-289797
-183691
-126961
-92123.5
-68819
-52368.9
-40339.7
-31327.8
-24460.6
-19163.6
-15042.3
-11816.3
-9280.85
-7283.06
-5706.88
-4462.99
-3481.86
-2708.93
-2101.11
-1624.22
-1251.08
-960.01
-733.728
-558.457
-423.229
-319.325
-239.832
-179.289
-133.391
-98.762
-72.7632
-53.3421
-38.9098
-28.2423
-20.4022
-14.6756
-10.5224
-7.5373
-5.41942
-3.9485
-2.96727
-2.36831
-2.08482
)
;
    }
    frontAndBack
    {
        type            empty;
    }
}


// ************************************************************************* //
