/*--------------------------------*- C++ -*----------------------------------*\
  =========                 |
  \\      /  F ield         | OpenFOAM: The Open Source CFD Toolbox
   \\    /   O peration     | Website:  https://openfoam.org
    \\  /    A nd           | Version:  7
     \\/     M anipulation  |
\*---------------------------------------------------------------------------*/
FoamFile
{
    version     2.0;
    format      ascii;
    class       volScalarField;
    location    "28";
    object      rhoc;
}
// * * * * * * * * * * * * * * * * * * * * * * * * * * * * * * * * * * * * * //

dimensions      [1 -3 0 0 0 0 0];

internalField   nonuniform List<scalar> 
900
(
1.05483e-07
1.05298e-07
1.04915e-07
1.0431e-07
1.03442e-07
1.02253e-07
1.00662e-07
9.85603e-08
9.58008e-08
9.21911e-08
8.74794e-08
8.13435e-08
7.33879e-08
6.31687e-08
5.0304e-08
3.48202e-08
1.81074e-08
4.70186e-09
1.46106e-10
5.47742e-16
1.14311e-09
1.13649e-09
1.12291e-09
1.10165e-09
1.07168e-09
1.03159e-09
9.79657e-10
9.13954e-10
8.32584e-10
7.34135e-10
6.18491e-10
4.88124e-10
3.49816e-10
2.16229e-10
1.05354e-10
3.41747e-11
5.23122e-12
1.74614e-13
1.84574e-16
2.98482e-23
1.27122e-11
1.25802e-11
1.23115e-11
1.18968e-11
1.13236e-11
1.05779e-11
9.64782e-12
8.52883e-12
7.23232e-12
5.79621e-12
4.2963e-12
2.85182e-12
1.61341e-12
7.1924e-13
2.21957e-13
3.79395e-14
2.40547e-15
2.67697e-17
1.28441e-20
3.12462e-26
1.51597e-13
1.4929e-13
1.44632e-13
1.37549e-13
1.27967e-13
1.15872e-13
1.0138e-13
8.48449e-14
6.69651e-14
4.88621e-14
3.20381e-14
1.81167e-14
8.31456e-15
2.82598e-15
6.17704e-16
6.95893e-17
2.84862e-18
2.46997e-20
2.17344e-23
1.44701e-27
2.04136e-15
2.00064e-15
1.91913e-15
1.797e-15
1.63537e-15
1.43732e-15
1.20921e-15
9.61894e-16
7.11379e-16
4.7789e-16
2.82365e-16
1.40269e-16
5.49683e-17
1.55181e-17
2.77199e-18
2.60633e-19
1.00192e-20
1.15094e-22
3.04511e-25
2.9616e-28
3.26454e-17
3.18552e-17
3.0286e-17
2.79672e-17
2.496e-17
2.13747e-17
1.73895e-17
1.32591e-17
9.30376e-18
5.86223e-18
3.20928e-18
1.46022e-18
5.20207e-19
1.33965e-19
2.24478e-20
2.14161e-21
9.96041e-23
1.964e-24
1.66017e-26
1.18341e-28
6.49606e-19
6.31623e-19
5.96166e-19
5.44397e-19
4.78405e-19
4.01516e-19
3.18507e-19
2.35513e-19
1.59385e-19
9.63899e-20
5.04994e-20
2.20202e-20
7.59393e-21
1.94329e-21
3.41815e-22
3.79624e-23
2.46385e-24
9.10372e-26
2.21544e-27
6.67411e-29
1.67517e-20
1.62469e-20
1.5257e-20
1.38253e-20
1.20243e-20
9.96175e-21
7.78163e-21
5.65541e-21
3.75889e-21
2.23564e-21
1.15785e-21
5.04954e-22
1.78117e-22
4.85103e-23
9.70584e-24
1.36354e-24
1.31505e-25
9.06895e-27
5.43857e-28
4.58e-29
5.7858e-22
5.60393e-22
5.24871e-22
4.73819e-22
4.10157e-22
3.38032e-22
2.62737e-22
1.90267e-22
1.26437e-22
7.56741e-23
3.98876e-23
1.80373e-23
6.79531e-24
2.06854e-24
4.94952e-25
9.16296e-26
1.32962e-26
1.62964e-27
2.03825e-28
3.54336e-29
2.74183e-23
2.65535e-23
2.48678e-23
2.2453e-23
1.94539e-23
1.60709e-23
1.25528e-23
9.1738e-24
6.19327e-24
3.80442e-24
2.08992e-24
1.00739e-24
4.17892e-25
1.46625e-25
4.30561e-26
1.06281e-26
2.28015e-27
4.62065e-28
1.02553e-28
2.96109e-29
1.80984e-24
1.75461e-24
1.64698e-24
1.49283e-24
1.30132e-24
1.08497e-24
8.5911e-25
6.40535e-25
4.45137e-25
2.85041e-25
1.66105e-25
8.69939e-26
4.04976e-26
1.66417e-26
6.04569e-27
1.97414e-27
6.03448e-28
1.85607e-28
6.32865e-29
2.60525e-29
1.67548e-25
1.62774e-25
1.53461e-25
1.4009e-25
1.23411e-25
1.04445e-25
8.44426e-26
6.47866e-26
4.68139e-26
3.16018e-26
1.97693e-26
1.13803e-26
6.00149e-27
2.90087e-27
1.29652e-27
5.47278e-28
2.26398e-28
9.66381e-29
4.49753e-29
2.37473e-29
2.1761e-26
2.12035e-26
2.0113e-26
1.85404e-26
1.65648e-26
1.42948e-26
1.18648e-26
9.42626e-27
7.1313e-27
5.11115e-27
3.45508e-27
2.19662e-27
1.31357e-27
7.42374e-28
4.01038e-28
2.11149e-28
1.11357e-28
6.07239e-29
3.52469e-29
2.21912e-29
3.94666e-27
3.85941e-27
3.68819e-27
3.43978e-27
3.12485e-27
2.75821e-27
2.3586e-27
1.9477e-27
1.54829e-27
1.18153e-27
8.63995e-28
6.05352e-28
4.07389e-28
2.64923e-28
1.68182e-28
1.05751e-28
6.70309e-29
4.36123e-29
2.95748e-29
2.11092e-29
9.89067e-28
9.71052e-28
9.35558e-28
8.83709e-28
8.17297e-28
7.38861e-28
6.51696e-28
5.59756e-28
4.67394e-28
3.78954e-28
2.98262e-28
2.28145e-28
1.70109e-28
1.24285e-28
8.96525e-29
6.44606e-29
4.66876e-29
3.44145e-29
2.60388e-29
2.03406e-29
3.35478e-28
3.30678e-28
3.21182e-28
3.07212e-28
2.89132e-28
2.6747e-28
2.42937e-28
2.1642e-28
1.88946e-28
1.61609e-28
1.3547e-28
1.11444e-28
9.01986e-29
7.20975e-29
5.71999e-29
4.53106e-29
3.60644e-29
2.90178e-29
2.3725e-29
1.97861e-29
1.48664e-28
1.47062e-28
1.43879e-28
1.39167e-28
1.3301e-28
1.25537e-28
1.16927e-28
1.07419e-28
9.72988e-29
8.68952e-29
7.65511e-29
6.65961e-29
5.73154e-29
4.89238e-29
4.15512e-29
3.5242e-29
2.99669e-29
2.56431e-29
2.21564e-29
1.93817e-29
8.20547e-29
8.14075e-29
8.01183e-29
7.81987e-29
7.56701e-29
7.25672e-29
6.89419e-29
6.48663e-29
6.04335e-29
5.57557e-29
5.09591e-29
4.61753e-29
4.15313e-29
3.71394e-29
3.30879e-29
2.9437e-29
2.62172e-29
2.34324e-29
2.10654e-29
1.90843e-29
5.35954e-29
5.32908e-29
5.26824e-29
5.17725e-29
5.05663e-29
4.90736e-29
4.73102e-29
4.53005e-29
4.30779e-29
4.06853e-29
3.81742e-29
3.5602e-29
3.30289e-29
3.05133e-29
2.8108e-29
2.58569e-29
2.37923e-29
2.19344e-29
2.02921e-29
1.88646e-29
3.95852e-29
3.94237e-29
3.91005e-29
3.86157e-29
3.797e-29
3.71657e-29
3.6208e-29
3.51054e-29
3.3871e-29
3.25226e-29
3.10832e-29
2.95797e-29
2.80424e-29
2.65027e-29
2.49916e-29
2.35378e-29
2.21655e-29
2.0894e-29
1.97368e-29
1.87016e-29
3.19055e-29
3.18119e-29
3.16242e-29
3.13421e-29
3.09651e-29
3.04934e-29
2.99286e-29
2.92736e-29
2.85339e-29
2.77175e-29
2.68353e-29
2.59009e-29
2.49303e-29
2.39412e-29
2.2952e-29
2.19809e-29
2.10448e-29
2.01585e-29
1.93341e-29
1.85806e-29
2.73459e-29
2.72878e-29
2.71714e-29
2.69962e-29
2.67615e-29
2.64671e-29
2.61131e-29
2.57006e-29
2.5232e-29
2.47111e-29
2.41433e-29
2.35361e-29
2.28982e-29
2.224e-29
2.15728e-29
2.09082e-29
2.02577e-29
1.96319e-29
1.90402e-29
1.84906e-29
2.44751e-29
2.44373e-29
2.43616e-29
2.42475e-29
2.40944e-29
2.3902e-29
2.36702e-29
2.33992e-29
2.309e-29
2.27447e-29
2.23662e-29
2.19586e-29
2.15271e-29
2.10779e-29
2.06182e-29
2.01554e-29
1.96974e-29
1.92515e-29
1.88249e-29
1.84237e-29
2.25887e-29
2.25633e-29
2.25123e-29
2.24353e-29
2.23321e-29
2.22022e-29
2.20454e-29
2.18618e-29
2.16519e-29
2.14167e-29
2.11578e-29
2.08778e-29
2.05798e-29
2.02678e-29
1.99462e-29
1.96201e-29
1.92947e-29
1.89752e-29
1.86668e-29
1.83741e-29
2.13103e-29
2.12928e-29
2.12575e-29
2.12044e-29
2.11331e-29
2.10433e-29
2.09349e-29
2.08078e-29
2.06623e-29
2.04989e-29
2.03187e-29
2.01232e-29
1.99145e-29
1.9695e-29
1.94677e-29
1.9236e-29
1.90035e-29
1.87738e-29
1.85506e-29
1.83373e-29
2.04246e-29
2.04123e-29
2.03875e-29
2.03502e-29
2.03001e-29
2.0237e-29
2.01609e-29
2.00716e-29
1.99692e-29
1.98543e-29
1.97273e-29
1.95893e-29
1.94417e-29
1.9286e-29
1.91243e-29
1.89589e-29
1.87922e-29
1.86268e-29
1.84653e-29
1.83101e-29
1.98014e-29
1.97926e-29
1.9775e-29
1.97485e-29
1.97129e-29
1.96681e-29
1.96141e-29
1.95507e-29
1.94781e-29
1.93964e-29
1.93063e-29
1.92082e-29
1.91031e-29
1.89921e-29
1.88766e-29
1.87582e-29
1.86385e-29
1.85193e-29
1.84026e-29
1.82901e-29
1.93582e-29
1.93519e-29
1.93393e-29
1.93204e-29
1.92949e-29
1.92629e-29
1.92243e-29
1.9179e-29
1.91272e-29
1.90689e-29
1.90045e-29
1.89345e-29
1.88595e-29
1.87801e-29
1.86975e-29
1.86126e-29
1.85267e-29
1.84409e-29
1.83568e-29
1.82754e-29
1.90409e-29
1.90364e-29
1.90274e-29
1.90137e-29
1.89955e-29
1.89725e-29
1.89448e-29
1.89124e-29
1.88752e-29
1.88336e-29
1.87875e-29
1.87374e-29
1.86837e-29
1.8627e-29
1.85678e-29
1.8507e-29
1.84454e-29
1.83838e-29
1.83233e-29
1.82646e-29
1.88129e-29
1.88097e-29
1.88031e-29
1.87933e-29
1.87802e-29
1.87637e-29
1.87438e-29
1.87205e-29
1.86939e-29
1.86641e-29
1.86311e-29
1.85953e-29
1.85569e-29
1.85163e-29
1.8474e-29
1.84305e-29
1.83864e-29
1.83423e-29
1.82989e-29
1.82567e-29
1.86487e-29
1.86464e-29
1.86417e-29
1.86347e-29
1.86252e-29
1.86134e-29
1.85991e-29
1.85824e-29
1.85633e-29
1.8542e-29
1.85184e-29
1.84928e-29
1.84654e-29
1.84364e-29
1.84062e-29
1.83752e-29
1.83437e-29
1.83122e-29
1.82811e-29
1.8251e-29
1.85306e-29
1.85289e-29
1.85255e-29
1.85204e-29
1.85137e-29
1.85052e-29
1.84949e-29
1.8483e-29
1.84694e-29
1.84541e-29
1.84373e-29
1.8419e-29
1.83995e-29
1.83789e-29
1.83574e-29
1.83353e-29
1.83129e-29
1.82905e-29
1.82683e-29
1.82469e-29
1.84456e-29
1.84444e-29
1.8442e-29
1.84383e-29
1.84335e-29
1.84274e-29
1.84201e-29
1.84116e-29
1.84018e-29
1.8391e-29
1.8379e-29
1.8366e-29
1.83522e-29
1.83375e-29
1.83223e-29
1.83066e-29
1.82907e-29
1.82748e-29
1.82591e-29
1.82439e-29
1.83846e-29
1.83837e-29
1.8382e-29
1.83794e-29
1.8376e-29
1.83716e-29
1.83664e-29
1.83604e-29
1.83535e-29
1.83457e-29
1.83373e-29
1.83281e-29
1.83182e-29
1.83079e-29
1.82971e-29
1.8286e-29
1.82748e-29
1.82636e-29
1.82525e-29
1.82417e-29
1.8341e-29
1.83404e-29
1.83392e-29
1.83373e-29
1.83349e-29
1.83318e-29
1.83281e-29
1.83238e-29
1.83189e-29
1.83134e-29
1.83075e-29
1.8301e-29
1.8294e-29
1.82867e-29
1.82791e-29
1.82714e-29
1.82635e-29
1.82556e-29
1.82478e-29
1.82402e-29
1.83099e-29
1.83095e-29
1.83086e-29
1.83073e-29
1.83056e-29
1.83034e-29
1.83008e-29
1.82978e-29
1.82943e-29
1.82905e-29
1.82863e-29
1.82817e-29
1.82768e-29
1.82717e-29
1.82664e-29
1.82609e-29
1.82554e-29
1.82499e-29
1.82444e-29
1.82391e-29
1.82879e-29
1.82876e-29
1.8287e-29
1.8286e-29
1.82848e-29
1.82833e-29
1.82815e-29
1.82793e-29
1.82769e-29
1.82742e-29
1.82713e-29
1.82681e-29
1.82647e-29
1.82611e-29
1.82574e-29
1.82536e-29
1.82497e-29
1.82458e-29
1.8242e-29
1.82383e-29
1.82723e-29
1.82721e-29
1.82717e-29
1.8271e-29
1.82702e-29
1.82691e-29
1.82678e-29
1.82663e-29
1.82646e-29
1.82627e-29
1.82607e-29
1.82585e-29
1.82561e-29
1.82536e-29
1.8251e-29
1.82484e-29
1.82457e-29
1.8243e-29
1.82404e-29
1.82378e-29
1.82614e-29
1.82612e-29
1.82609e-29
1.82605e-29
1.82599e-29
1.82591e-29
1.82582e-29
1.82572e-29
1.8256e-29
1.82547e-29
1.82533e-29
1.82517e-29
1.82501e-29
1.82484e-29
1.82466e-29
1.82447e-29
1.82429e-29
1.8241e-29
1.82392e-29
1.82374e-29
1.82538e-29
1.82537e-29
1.82535e-29
1.82531e-29
1.82527e-29
1.82522e-29
1.82516e-29
1.82509e-29
1.825e-29
1.82491e-29
1.82481e-29
1.82471e-29
1.82459e-29
1.82447e-29
1.82435e-29
1.82422e-29
1.82409e-29
1.82397e-29
1.82384e-29
1.82372e-29
1.82485e-29
1.82485e-29
1.82483e-29
1.82481e-29
1.82478e-29
1.82474e-29
1.8247e-29
1.82465e-29
1.82459e-29
1.82453e-29
1.82446e-29
1.82439e-29
1.82431e-29
1.82422e-29
1.82414e-29
1.82405e-29
1.82396e-29
1.82387e-29
1.82378e-29
1.8237e-29
1.8245e-29
1.82449e-29
1.82448e-29
1.82447e-29
1.82445e-29
1.82442e-29
1.82439e-29
1.82436e-29
1.82431e-29
1.82427e-29
1.82422e-29
1.82417e-29
1.82411e-29
1.82405e-29
1.82399e-29
1.82393e-29
1.82387e-29
1.82381e-29
1.82375e-29
1.82369e-29
1.82427e-29
1.82426e-29
1.82426e-29
1.82425e-29
1.82423e-29
1.82421e-29
1.82419e-29
1.82416e-29
1.82413e-29
1.8241e-29
1.82407e-29
1.82403e-29
1.82399e-29
1.82394e-29
1.8239e-29
1.82386e-29
1.82381e-29
1.82377e-29
1.82372e-29
1.82368e-29
1.82413e-29
1.82413e-29
1.82412e-29
1.82411e-29
1.8241e-29
1.82409e-29
1.82407e-29
1.82405e-29
1.82403e-29
1.824e-29
1.82397e-29
1.82394e-29
1.82391e-29
1.82388e-29
1.82385e-29
1.82381e-29
1.82378e-29
1.82374e-29
1.82371e-29
1.82367e-29
1.82406e-29
1.82406e-29
1.82406e-29
1.82405e-29
1.82404e-29
1.82403e-29
1.82401e-29
1.82399e-29
1.82397e-29
1.82395e-29
1.82393e-29
1.8239e-29
1.82388e-29
1.82385e-29
1.82382e-29
1.82379e-29
1.82376e-29
1.82373e-29
1.8237e-29
1.82367e-29
)
;

boundaryField
{
    topWall
    {
        type            zeroGradient;
    }
    bottomWall
    {
        type            zeroGradient;
    }
    sideWallL
    {
        type            symmetry;
    }
    sideWallR
    {
        type            zeroGradient;
    }
    frontAndBack
    {
        type            empty;
    }
}


// ************************************************************************* //
