/*--------------------------------*- C++ -*----------------------------------*\
  =========                 |
  \\      /  F ield         | OpenFOAM: The Open Source CFD Toolbox
   \\    /   O peration     | Website:  https://openfoam.org
    \\  /    A nd           | Version:  7
     \\/     M anipulation  |
\*---------------------------------------------------------------------------*/
FoamFile
{
    version     2.0;
    format      ascii;
    class       volScalarField;
    location    "28";
    object      rhog;
}
// * * * * * * * * * * * * * * * * * * * * * * * * * * * * * * * * * * * * * //

dimensions      [1 -3 0 0 0 0 0];

internalField   nonuniform List<scalar> 
900
(
0.00692493
0.00691776
0.00690293
0.00687943
0.00684564
0.00679917
0.00673669
0.00665357
0.00654342
0.00639747
0.00620352
0.00594461
0.00559692
0.005127
0.00448857
0.0036222
0.00247619
0.00113218
0.000151181
1.01669e-07
0.000505004
0.000503294
0.00049977
0.000494225
0.000486331
0.000475631
0.000461517
0.000443215
0.000419783
0.000390127
0.000353093
0.000307679
0.000253499
0.000191662
0.000126192
6.55702e-05
2.19858e-05
3.0209e-06
5.40276e-08
4.91485e-12
3.74613e-05
3.72328e-05
3.67645e-05
3.60337e-05
3.50063e-05
3.36375e-05
3.18733e-05
2.96554e-05
2.69293e-05
2.36607e-05
1.9862e-05
1.56326e-05
1.12067e-05
6.98852e-06
3.51329e-06
1.24843e-06
2.47231e-07
1.7444e-08
1.87062e-10
7.78103e-14
2.86028e-06
2.83456e-06
2.78213e-06
2.70107e-06
2.58867e-06
2.44176e-06
2.2572e-06
2.03283e-06
1.76883e-06
1.46976e-06
1.14693e-06
8.20446e-07
5.19081e-07
2.7516e-07
1.12395e-07
3.10048e-08
4.68253e-09
2.78947e-10
4.141e-12
1.18177e-14
2.31512e-07
2.28767e-07
2.23204e-07
2.14686e-07
2.03044e-07
1.88121e-07
1.69851e-07
1.48368e-07
1.24144e-07
9.81431e-08
7.19227e-08
4.75705e-08
2.73427e-08
1.29386e-08
4.66399e-09
1.1463e-09
1.64718e-10
1.13891e-11
3.17721e-13
4.40348e-15
2.04849e-08
2.01886e-08
1.95911e-08
1.8685e-08
1.74634e-08
1.59262e-08
1.4089e-08
1.19934e-08
9.7183e-09
7.3875e-09
5.16587e-09
3.23619e-09
1.75253e-09
7.82002e-10
2.69812e-10
6.63538e-11
1.05626e-11
9.93184e-13
5.44113e-14
2.47133e-15
2.03995e-09
2.00602e-09
1.93797e-09
1.83562e-09
1.69932e-09
1.53057e-09
1.33299e-09
1.11328e-09
8.81964e-10
6.53371e-10
4.44286e-10
2.70721e-10
1.43344e-10
6.34551e-11
2.24106e-11
5.98999e-12
1.1523e-12
1.55767e-13
1.58346e-14
1.71761e-15
2.34584e-10
2.30315e-10
2.21789e-10
2.09058e-10
1.92269e-10
1.71753e-10
1.48115e-10
1.22326e-10
9.57627e-11
7.01371e-11
4.72765e-11
2.87398e-11
1.53755e-11
7.03564e-12
2.66957e-12
8.15673e-13
1.9717e-13
3.83131e-14
6.62079e-15
1.35024e-15
3.18148e-11
3.12081e-11
3e-11
2.82056e-11
2.58568e-11
2.3013e-11
1.97722e-11
1.62796e-11
1.27278e-11
9.34282e-12
6.35194e-12
3.93634e-12
2.18367e-12
1.06382e-12
4.47047e-13
1.60123e-13
4.90504e-14
1.33339e-14
3.56832e-15
1.1452e-15
5.16881e-12
5.06939e-12
4.87189e-12
4.57953e-12
4.1986e-12
3.7399e-12
3.22024e-12
2.66335e-12
2.09945e-12
1.56285e-12
1.08704e-12
6.98187e-13
4.09055e-13
2.16144e-13
1.02191e-13
4.32312e-14
1.66248e-14
6.0746e-15
2.30129e-15
1.02023e-15
1.01592e-12
9.96901e-13
9.59165e-13
9.034e-13
8.30887e-13
7.43741e-13
6.45139e-13
5.39448e-13
4.3212e-13
3.2925e-13
2.36776e-13
1.5943e-13
9.97788e-14
5.77373e-14
3.08667e-14
1.53599e-14
7.2673e-15
3.4071e-15
1.68484e-15
9.39369e-16
2.42643e-13
2.38372e-13
2.29897e-13
2.17376e-13
2.01091e-13
1.81499e-13
1.59275e-13
1.35337e-13
1.10822e-13
8.70051e-14
6.51481e-14
4.63041e-14
3.11308e-14
1.97815e-14
1.19252e-14
6.89568e-15
3.90575e-15
2.23779e-15
1.34879e-15
8.84797e-16
7.04221e-14
6.92961e-14
6.70607e-14
6.37542e-14
5.9445e-14
5.42432e-14
4.8311e-14
4.18682e-14
3.51893e-14
2.85856e-14
2.23742e-14
1.68355e-14
1.21699e-14
8.46797e-15
5.70502e-15
3.76309e-15
2.47187e-15
1.65251e-15
1.14983e-15
8.46843e-16
2.47512e-14
2.44047e-14
2.37161e-14
2.26956e-14
2.13612e-14
1.97424e-14
1.7883e-14
1.58427e-14
1.36972e-14
1.15341e-14
9.44595e-15
7.51947e-15
5.82416e-15
4.40303e-15
3.26835e-15
2.40391e-15
1.77298e-15
1.32887e-15
1.02468e-15
8.19865e-16
1.04659e-14
1.03427e-14
1.00976e-14
9.73326e-15
9.25506e-15
8.67157e-15
7.99586e-15
7.24612e-15
6.44585e-15
5.62307e-15
4.80842e-15
4.03229e-15
3.32144e-15
2.6958e-15
2.16643e-15
1.73507e-15
1.39548e-15
1.13598e-15
9.42362e-16
8.00381e-16
5.26641e-15
5.21647e-15
5.11692e-15
4.96858e-15
4.77303e-15
4.533e-15
4.25272e-15
3.9383e-15
3.59783e-15
3.24126e-15
2.87992e-15
2.52561e-15
2.18958e-15
1.88129e-15
1.60754e-15
1.37193e-15
1.17492e-15
1.01438e-15
8.86384e-16
7.86147e-16
3.10018e-15
3.07744e-15
3.03204e-15
2.96421e-15
2.87443e-15
2.76359e-15
2.63316e-15
2.48534e-15
2.32318e-15
2.15054e-15
1.97199e-15
1.79257e-15
1.61732e-15
1.45094e-15
1.29731e-15
1.1592e-15
1.03812e-15
9.34399e-16
8.47369e-16
7.75661e-16
2.08576e-15
2.07432e-15
2.05144e-15
2.01718e-15
1.97167e-15
1.91519e-15
1.84827e-15
1.77175e-15
1.68687e-15
1.59523e-15
1.49883e-15
1.39996e-15
1.30106e-15
1.20454e-15
1.11262e-15
1.02711e-15
9.4934e-16
8.80103e-16
8.19674e-16
7.67892e-16
1.56161e-15
1.55535e-15
1.54282e-15
1.52402e-15
1.49895e-15
1.46772e-15
1.4305e-15
1.38763e-15
1.33962e-15
1.28721e-15
1.23131e-15
1.17303e-15
1.11362e-15
1.05438e-15
9.96582e-16
9.41374e-16
8.89725e-16
8.42361e-16
7.99751e-16
7.62115e-16
1.26804e-15
1.26437e-15
1.25702e-15
1.24597e-15
1.23121e-15
1.21274e-15
1.19064e-15
1.16504e-15
1.13616e-15
1.10434e-15
1.07004e-15
1.03383e-15
9.96366e-16
9.58383e-16
9.20628e-16
8.83832e-16
8.48656e-16
8.15661e-16
7.85279e-16
7.5781e-16
1.09261e-15
1.09034e-15
1.08578e-15
1.07893e-15
1.06975e-15
1.05824e-15
1.04442e-15
1.02834e-15
1.0101e-15
9.89863e-16
9.67872e-16
9.44429e-16
9.19907e-16
8.94728e-16
8.69347e-16
8.4423e-16
8.19821e-16
7.96528e-16
7.74696e-16
7.54598e-16
9.82304e-16
9.80835e-16
9.77888e-16
9.73448e-16
9.67497e-16
9.60022e-16
9.51021e-16
9.40515e-16
9.2855e-16
9.15213e-16
9.0063e-16
8.84973e-16
8.68461e-16
8.51346e-16
8.33913e-16
8.16462e-16
7.99292e-16
7.82693e-16
7.66922e-16
7.52202e-16
9.10151e-16
9.09168e-16
9.07197e-16
9.04225e-16
9.00239e-16
8.95227e-16
8.89182e-16
8.8211e-16
8.74035e-16
8.65001e-16
8.55082e-16
8.44379e-16
8.33023e-16
8.21172e-16
8.09007e-16
7.96725e-16
7.84531e-16
7.72625e-16
7.61196e-16
7.50416e-16
8.61512e-16
8.60838e-16
8.59486e-16
8.57447e-16
8.54711e-16
8.51269e-16
8.47113e-16
8.42246e-16
8.36678e-16
8.30435e-16
8.2356e-16
8.16116e-16
8.08185e-16
7.99868e-16
7.91283e-16
7.82562e-16
7.73843e-16
7.65269e-16
7.56974e-16
7.49087e-16
8.27974e-16
8.27504e-16
8.26559e-16
8.25134e-16
8.23223e-16
8.20817e-16
8.17912e-16
8.14506e-16
8.10607e-16
8.06229e-16
8.014e-16
7.96159e-16
7.90558e-16
7.84666e-16
7.7856e-16
7.7233e-16
7.66071e-16
7.59882e-16
7.53861e-16
7.481e-16
8.04463e-16
8.0413e-16
8.03461e-16
8.02453e-16
8.011e-16
7.99397e-16
7.97342e-16
7.94931e-16
7.92171e-16
7.8907e-16
7.85645e-16
7.81923e-16
7.7794e-16
7.7374e-16
7.69376e-16
7.64909e-16
7.60405e-16
7.55935e-16
7.51567e-16
7.47368e-16
7.87784e-16
7.87546e-16
7.87068e-16
7.86348e-16
7.85382e-16
7.84168e-16
7.82701e-16
7.80982e-16
7.79013e-16
7.76802e-16
7.74358e-16
7.71702e-16
7.68855e-16
7.65849e-16
7.62721e-16
7.59513e-16
7.56271e-16
7.53043e-16
7.49879e-16
7.46828e-16
7.75855e-16
7.75684e-16
7.75341e-16
7.74824e-16
7.74131e-16
7.73259e-16
7.72208e-16
7.70976e-16
7.69566e-16
7.67983e-16
7.66233e-16
7.64331e-16
7.62292e-16
7.60137e-16
7.57893e-16
7.55588e-16
7.53254e-16
7.50927e-16
7.48641e-16
7.4643e-16
7.6728e-16
7.67157e-16
7.66909e-16
7.66537e-16
7.66038e-16
7.65411e-16
7.64656e-16
7.63771e-16
7.62759e-16
7.61623e-16
7.60368e-16
7.59004e-16
7.57543e-16
7.55998e-16
7.54388e-16
7.52733e-16
7.51057e-16
7.49382e-16
7.47735e-16
7.46139e-16
7.61098e-16
7.61009e-16
7.6083e-16
7.60562e-16
7.60203e-16
7.59751e-16
7.59208e-16
7.58572e-16
7.57845e-16
7.5703e-16
7.56131e-16
7.55153e-16
7.54106e-16
7.52999e-16
7.51846e-16
7.5066e-16
7.49458e-16
7.48257e-16
7.47073e-16
7.45926e-16
7.56636e-16
7.56572e-16
7.56443e-16
7.5625e-16
7.55991e-16
7.55667e-16
7.55276e-16
7.5482e-16
7.54298e-16
7.53714e-16
7.5307e-16
7.5237e-16
7.51621e-16
7.5083e-16
7.50006e-16
7.49158e-16
7.48299e-16
7.4744e-16
7.46593e-16
7.4577e-16
7.53418e-16
7.53372e-16
7.53279e-16
7.5314e-16
7.52954e-16
7.52721e-16
7.52441e-16
7.52114e-16
7.51741e-16
7.51323e-16
7.50863e-16
7.50363e-16
7.49829e-16
7.49265e-16
7.48677e-16
7.48073e-16
7.47461e-16
7.46848e-16
7.46244e-16
7.45658e-16
7.511e-16
7.51067e-16
7.51001e-16
7.50901e-16
7.50768e-16
7.50601e-16
7.50401e-16
7.50167e-16
7.499e-16
7.49602e-16
7.49274e-16
7.48919e-16
7.48539e-16
7.48138e-16
7.47721e-16
7.47292e-16
7.46857e-16
7.46422e-16
7.45993e-16
7.45577e-16
7.49435e-16
7.49411e-16
7.49364e-16
7.49293e-16
7.49198e-16
7.49079e-16
7.48936e-16
7.48769e-16
7.4858e-16
7.48368e-16
7.48135e-16
7.47883e-16
7.47614e-16
7.4733e-16
7.47034e-16
7.46731e-16
7.46424e-16
7.46116e-16
7.45813e-16
7.45518e-16
7.48242e-16
7.48226e-16
7.48192e-16
7.48141e-16
7.48074e-16
7.47989e-16
7.47888e-16
7.4777e-16
7.47635e-16
7.47485e-16
7.47321e-16
7.47143e-16
7.46953e-16
7.46752e-16
7.46544e-16
7.4633e-16
7.46114e-16
7.45897e-16
7.45684e-16
7.45476e-16
7.47392e-16
7.4738e-16
7.47356e-16
7.4732e-16
7.47272e-16
7.47212e-16
7.47141e-16
7.47057e-16
7.46963e-16
7.46857e-16
7.46741e-16
7.46616e-16
7.46482e-16
7.46341e-16
7.46195e-16
7.46045e-16
7.45894e-16
7.45742e-16
7.45592e-16
7.45447e-16
7.46787e-16
7.46779e-16
7.46762e-16
7.46737e-16
7.46703e-16
7.46661e-16
7.46611e-16
7.46552e-16
7.46485e-16
7.46411e-16
7.4633e-16
7.46242e-16
7.46149e-16
7.4605e-16
7.45948e-16
7.45843e-16
7.45737e-16
7.45632e-16
7.45527e-16
7.45426e-16
7.4636e-16
7.46354e-16
7.46343e-16
7.46325e-16
7.46301e-16
7.46272e-16
7.46236e-16
7.46195e-16
7.46149e-16
7.46097e-16
7.4604e-16
7.45979e-16
7.45914e-16
7.45845e-16
7.45774e-16
7.45701e-16
7.45628e-16
7.45554e-16
7.45481e-16
7.45411e-16
7.4606e-16
7.46056e-16
7.46048e-16
7.46036e-16
7.46019e-16
7.45998e-16
7.45974e-16
7.45945e-16
7.45913e-16
7.45876e-16
7.45837e-16
7.45794e-16
7.45749e-16
7.45701e-16
7.45652e-16
7.45602e-16
7.45551e-16
7.455e-16
7.45449e-16
7.454e-16
7.45851e-16
7.45848e-16
7.45843e-16
7.45834e-16
7.45822e-16
7.45808e-16
7.45791e-16
7.45771e-16
7.45748e-16
7.45723e-16
7.45696e-16
7.45666e-16
7.45635e-16
7.45602e-16
7.45567e-16
7.45532e-16
7.45497e-16
7.45462e-16
7.45427e-16
7.45393e-16
7.45707e-16
7.45705e-16
7.45701e-16
7.45695e-16
7.45687e-16
7.45677e-16
7.45665e-16
7.45651e-16
7.45635e-16
7.45617e-16
7.45598e-16
7.45578e-16
7.45556e-16
7.45533e-16
7.45509e-16
7.45485e-16
7.4546e-16
7.45436e-16
7.45412e-16
7.45388e-16
7.45609e-16
7.45608e-16
7.45605e-16
7.45601e-16
7.45595e-16
7.45588e-16
7.45579e-16
7.4557e-16
7.45558e-16
7.45546e-16
7.45533e-16
7.45518e-16
7.45503e-16
7.45486e-16
7.4547e-16
7.45453e-16
7.45435e-16
7.45418e-16
7.45401e-16
7.45385e-16
7.45546e-16
7.45545e-16
7.45543e-16
7.45539e-16
7.45535e-16
7.4553e-16
7.45524e-16
7.45517e-16
7.45509e-16
7.455e-16
7.4549e-16
7.45479e-16
7.45468e-16
7.45456e-16
7.45444e-16
7.45432e-16
7.45419e-16
7.45407e-16
7.45395e-16
7.45383e-16
7.45508e-16
7.45507e-16
7.45505e-16
7.45503e-16
7.45499e-16
7.45495e-16
7.45491e-16
7.45485e-16
7.45479e-16
7.45472e-16
7.45464e-16
7.45456e-16
7.45447e-16
7.45438e-16
7.45429e-16
7.45419e-16
7.4541e-16
7.454e-16
7.45391e-16
7.45381e-16
7.4549e-16
7.45489e-16
7.45488e-16
7.45485e-16
7.45483e-16
7.45479e-16
7.45475e-16
7.4547e-16
7.45465e-16
7.45459e-16
7.45452e-16
7.45445e-16
7.45438e-16
7.4543e-16
7.45422e-16
7.45413e-16
7.45405e-16
7.45397e-16
7.45389e-16
7.45381e-16
)
;

boundaryField
{
    topWall
    {
        type            calculated;
        value           uniform 0;
    }
    bottomWall
    {
        type            zeroGradient;
    }
    sideWallL
    {
        type            symmetry;
    }
    sideWallR
    {
        type            calculated;
        value           uniform 0;
    }
    frontAndBack
    {
        type            empty;
    }
}


// ************************************************************************* //
