/*--------------------------------*- C++ -*----------------------------------*\
  =========                 |
  \\      /  F ield         | OpenFOAM: The Open Source CFD Toolbox
   \\    /   O peration     | Website:  https://openfoam.org
    \\  /    A nd           | Version:  7
     \\/     M anipulation  |
\*---------------------------------------------------------------------------*/
FoamFile
{
    version     2.0;
    format      ascii;
    class       volScalarField;
    location    "28";
    object      rhois;
}
// * * * * * * * * * * * * * * * * * * * * * * * * * * * * * * * * * * * * * //

dimensions      [1 -3 0 0 0 0 0];

internalField   nonuniform List<scalar> 
900
(
0.0331897
0.0331656
0.0331155
0.0330362
0.0329218
0.032764
0.0325511
0.0322664
0.0318869
0.0313803
0.0307007
0.0297819
0.0285272
0.0267917
0.0243536
0.0208719
0.015862
0.00900002
0.00208547
1.04439e-05
0.00490115
0.00488931
0.00486487
0.00482628
0.00477108
0.00469576
0.00459553
0.00446408
0.00429327
0.00407285
0.00379045
0.00343202
0.00298379
0.00243728
0.00180064
0.00112014
0.000506984
0.000120164
6.52613e-06
8.21351e-09
0.000727092
0.000723925
0.000717411
0.000707192
0.000692711
0.000673207
0.000647705
0.000615027
0.000573846
0.000522821
0.000460879
0.000387759
0.000304905
0.000216725
0.000131783
6.23326e-05
1.93186e-05
2.8454e-06
1.08891e-07
4.40615e-10
0.000110431
0.000109722
0.00010827
0.000106007
0.000102836
9.86257e-05
9.32274e-05
8.64846e-05
7.82647e-05
6.85092e-05
5.7312e-05
4.5025e-05
3.23691e-05
2.04784e-05
1.07333e-05
4.23886e-06
1.08554e-06
1.42976e-07
7.08482e-09
1.19611e-10
1.75657e-05
1.74171e-05
1.71141e-05
1.66458e-05
1.59964e-05
1.51475e-05
1.40803e-05
1.27811e-05
1.12484e-05
9.50321e-06
7.60214e-06
5.64834e-06
3.79306e-06
2.21444e-06
1.06312e-06
3.87844e-07
9.64874e-08
1.43283e-08
1.14474e-09
6.08884e-11
2.99358e-06
2.96272e-06
2.90009e-06
2.80399e-06
2.67216e-06
2.5023e-06
2.29276e-06
2.04366e-06
1.75835e-06
1.44508e-06
1.11854e-06
8.0008e-07
5.15512e-07
2.89141e-07
1.34954e-07
4.95104e-08
1.33695e-08
2.51066e-09
3.32514e-10
4.10588e-11
5.58446e-07
5.51845e-07
5.38501e-07
5.18162e-07
4.90536e-07
4.55397e-07
4.12758e-07
3.63086e-07
3.07565e-07
2.48335e-07
1.88603e-07
1.32443e-07
8.41396e-08
4.70593e-08
2.24296e-08
8.79046e-09
2.74501e-09
6.78226e-10
1.41922e-10
3.20102e-11
1.16224e-07
1.14726e-07
1.11709e-07
1.07137e-07
1.00978e-07
9.32264e-08
8.39439e-08
7.32989e-08
6.16141e-08
4.93968e-08
3.73337e-08
2.62229e-08
1.68266e-08
9.67204e-09
4.87768e-09
2.11909e-09
7.87233e-10
2.5536e-10
7.8469e-11
2.71231e-11
2.74132e-08
2.70449e-08
2.63048e-08
2.51886e-08
2.36941e-08
2.18283e-08
1.96151e-08
1.71042e-08
1.43794e-08
1.15627e-08
8.80883e-09
6.28798e-09
4.15419e-09
2.5081e-09
1.36866e-09
6.71402e-10
2.98286e-10
1.23973e-10
5.1783e-11
2.4196e-11
7.4159e-09
7.31613e-09
7.11608e-09
6.81528e-09
6.41431e-09
5.91634e-09
5.32904e-09
4.66667e-09
3.95166e-09
3.21512e-09
2.49519e-09
1.83259e-09
1.26366e-09
8.12505e-10
4.8534e-10
2.7011e-10
1.42116e-10
7.30161e-11
3.86058e-11
2.23199e-11
2.3197e-09
2.28964e-09
2.22945e-09
2.13911e-09
2.01898e-09
1.87018e-09
1.69513e-09
1.49801e-09
1.28523e-09
1.06542e-09
8.49018e-10
6.47085e-10
4.69649e-10
3.23804e-10
2.12309e-10
1.33324e-10
8.14593e-11
4.97005e-11
3.13219e-11
2.10604e-11
8.42859e-10
8.32741e-10
8.12489e-10
7.8212e-10
7.41767e-10
6.91807e-10
6.33011e-10
5.66689e-10
4.94806e-10
4.19996e-10
3.45432e-10
2.74526e-10
2.10468e-10
1.55712e-10
1.11565e-10
7.80322e-11
5.39916e-11
3.76315e-11
2.6957e-11
2.0187e-11
3.56179e-10
3.52374e-10
3.44758e-10
3.33337e-10
3.18154e-10
2.99332e-10
2.77129e-10
2.51979e-10
2.24536e-10
1.95678e-10
1.66478e-10
1.38114e-10
1.11732e-10
8.82929e-11
6.84315e-11
5.23791e-11
3.99786e-11
3.07804e-11
2.41831e-11
1.95669e-11
1.74592e-10
1.73e-10
1.69814e-10
1.65032e-10
1.58665e-10
1.50755e-10
1.41389e-10
1.30719e-10
1.18981e-10
1.06494e-10
9.36541e-11
8.09116e-11
6.87236e-11
5.7503e-11
4.75667e-11
3.9099e-11
3.21421e-11
2.66132e-11
2.23428e-11
1.91191e-11
9.85045e-11
9.77698e-11
9.62978e-11
9.4086e-11
9.1136e-11
8.746e-11
8.30885e-11
7.8078e-11
7.25176e-11
6.65327e-11
6.02831e-11
5.39554e-11
4.77482e-11
4.18528e-11
3.64328e-11
3.16072e-11
2.74405e-11
2.39436e-11
2.10823e-11
1.87918e-11
6.30958e-11
6.27251e-11
6.19818e-11
6.08635e-11
5.9369e-11
5.75008e-11
5.52695e-11
5.26964e-11
4.98173e-11
4.66846e-11
4.33673e-11
3.99487e-11
3.65214e-11
3.31798e-11
3.00115e-11
2.7089e-11
2.44642e-11
2.21653e-11
2.01983e-11
1.85504e-11
4.50302e-11
4.4828e-11
4.44224e-11
4.38113e-11
4.29931e-11
4.19674e-11
4.07373e-11
3.9311e-11
3.77034e-11
3.59375e-11
3.4045e-11
3.20655e-11
3.00449e-11
2.80323e-11
2.60761e-11
2.42206e-11
2.25018e-11
2.09457e-11
1.95673e-11
1.83713e-11
3.5062e-11
3.49442e-11
3.47077e-11
3.43511e-11
3.38728e-11
3.32717e-11
3.25484e-11
3.17058e-11
3.07503e-11
2.96924e-11
2.85475e-11
2.73355e-11
2.60803e-11
2.48086e-11
2.35484e-11
2.23265e-11
2.11674e-11
2.00907e-11
1.91113e-11
1.82379e-11
2.91923e-11
2.91198e-11
2.89742e-11
2.87545e-11
2.84593e-11
2.80877e-11
2.76393e-11
2.7115e-11
2.65176e-11
2.58521e-11
2.51263e-11
2.43506e-11
2.35382e-11
2.27042e-11
2.18652e-11
2.1038e-11
2.02387e-11
1.94816e-11
1.87785e-11
1.81382e-11
2.55487e-11
2.5502e-11
2.54083e-11
2.52668e-11
2.50766e-11
2.48367e-11
2.45467e-11
2.42067e-11
2.38179e-11
2.33828e-11
2.29054e-11
2.23915e-11
2.18488e-11
2.1286e-11
2.07134e-11
2.01415e-11
1.95812e-11
1.90424e-11
1.85341e-11
1.80637e-11
2.31899e-11
2.31588e-11
2.30963e-11
2.3002e-11
2.2875e-11
2.27149e-11
2.2521e-11
2.22933e-11
2.20322e-11
2.1739e-11
2.1416e-11
2.10665e-11
2.0695e-11
2.0307e-11
1.99088e-11
1.95073e-11
1.91097e-11
1.87231e-11
1.83539e-11
1.80079e-11
2.16118e-11
2.15905e-11
2.15477e-11
2.14831e-11
2.13961e-11
2.12864e-11
2.11534e-11
2.0997e-11
2.08174e-11
2.06154e-11
2.03921e-11
2.01496e-11
1.98907e-11
1.96189e-11
1.93381e-11
1.90531e-11
1.87686e-11
1.84896e-11
1.82207e-11
1.79662e-11
2.0529e-11
2.05141e-11
2.04842e-11
2.0439e-11
2.03783e-11
2.03015e-11
2.02085e-11
2.00992e-11
1.99734e-11
1.98318e-11
1.9675e-11
1.95043e-11
1.93215e-11
1.91288e-11
1.89289e-11
1.8725e-11
1.85202e-11
1.83181e-11
1.81221e-11
1.79351e-11
1.97718e-11
1.97612e-11
1.974e-11
1.97079e-11
1.96648e-11
1.96104e-11
1.95445e-11
1.94669e-11
1.93778e-11
1.92772e-11
1.91659e-11
1.90444e-11
1.89142e-11
1.87765e-11
1.86333e-11
1.84866e-11
1.83387e-11
1.81921e-11
1.8049e-11
1.79119e-11
1.92347e-11
1.92272e-11
1.92119e-11
1.91889e-11
1.9158e-11
1.91191e-11
1.90719e-11
1.90163e-11
1.89525e-11
1.88806e-11
1.88009e-11
1.87139e-11
1.86205e-11
1.85216e-11
1.84185e-11
1.83127e-11
1.82057e-11
1.80992e-11
1.7995e-11
1.78947e-11
1.885e-11
1.88445e-11
1.88335e-11
1.88169e-11
1.87946e-11
1.87665e-11
1.87325e-11
1.86925e-11
1.86466e-11
1.85948e-11
1.85375e-11
1.84749e-11
1.84076e-11
1.83364e-11
1.82621e-11
1.81856e-11
1.81082e-11
1.8031e-11
1.79551e-11
1.78819e-11
1.85725e-11
1.85686e-11
1.85606e-11
1.85485e-11
1.85324e-11
1.8512e-11
1.84874e-11
1.84585e-11
1.84254e-11
1.8388e-11
1.83466e-11
1.83015e-11
1.8253e-11
1.82016e-11
1.8148e-11
1.80928e-11
1.80367e-11
1.79808e-11
1.79258e-11
1.78725e-11
1.83716e-11
1.83687e-11
1.83629e-11
1.83541e-11
1.83424e-11
1.83276e-11
1.83098e-11
1.82889e-11
1.82649e-11
1.82379e-11
1.8208e-11
1.81755e-11
1.81405e-11
1.81034e-11
1.80647e-11
1.80249e-11
1.79844e-11
1.7944e-11
1.79042e-11
1.78655e-11
1.82257e-11
1.82236e-11
1.82194e-11
1.8213e-11
1.82045e-11
1.81938e-11
1.81809e-11
1.81657e-11
1.81484e-11
1.81289e-11
1.81073e-11
1.80838e-11
1.80586e-11
1.80319e-11
1.80041e-11
1.79754e-11
1.79462e-11
1.79171e-11
1.78883e-11
1.78604e-11
1.81197e-11
1.81182e-11
1.81151e-11
1.81105e-11
1.81044e-11
1.80966e-11
1.80873e-11
1.80763e-11
1.80638e-11
1.80497e-11
1.80342e-11
1.80173e-11
1.79992e-11
1.798e-11
1.79599e-11
1.79393e-11
1.79184e-11
1.78974e-11
1.78768e-11
1.78567e-11
1.80429e-11
1.80418e-11
1.80395e-11
1.80362e-11
1.80317e-11
1.80261e-11
1.80194e-11
1.80115e-11
1.80025e-11
1.79923e-11
1.79812e-11
1.7969e-11
1.7956e-11
1.79423e-11
1.79279e-11
1.79132e-11
1.78982e-11
1.78832e-11
1.78684e-11
1.7854e-11
1.79872e-11
1.79864e-11
1.79848e-11
1.79824e-11
1.79791e-11
1.79751e-11
1.79702e-11
1.79646e-11
1.79581e-11
1.79508e-11
1.79428e-11
1.79341e-11
1.79248e-11
1.7915e-11
1.79048e-11
1.78942e-11
1.78835e-11
1.78728e-11
1.78623e-11
1.7852e-11
1.79469e-11
1.79464e-11
1.79452e-11
1.79435e-11
1.79412e-11
1.79383e-11
1.79348e-11
1.79307e-11
1.79261e-11
1.79209e-11
1.79152e-11
1.7909e-11
1.79024e-11
1.78954e-11
1.78881e-11
1.78806e-11
1.7873e-11
1.78654e-11
1.78579e-11
1.78506e-11
1.7918e-11
1.79175e-11
1.79167e-11
1.79155e-11
1.79138e-11
1.79118e-11
1.79093e-11
1.79064e-11
1.79031e-11
1.78994e-11
1.78953e-11
1.78909e-11
1.78862e-11
1.78812e-11
1.78761e-11
1.78708e-11
1.78654e-11
1.786e-11
1.78547e-11
1.78496e-11
1.78972e-11
1.78969e-11
1.78963e-11
1.78954e-11
1.78942e-11
1.78928e-11
1.7891e-11
1.78889e-11
1.78866e-11
1.7884e-11
1.78811e-11
1.7878e-11
1.78747e-11
1.78712e-11
1.78675e-11
1.78638e-11
1.786e-11
1.78562e-11
1.78525e-11
1.78488e-11
1.78823e-11
1.78821e-11
1.78817e-11
1.78811e-11
1.78802e-11
1.78792e-11
1.78779e-11
1.78765e-11
1.78748e-11
1.7873e-11
1.7871e-11
1.78688e-11
1.78664e-11
1.7864e-11
1.78614e-11
1.78588e-11
1.78561e-11
1.78535e-11
1.78509e-11
1.78483e-11
1.78718e-11
1.78716e-11
1.78713e-11
1.78709e-11
1.78703e-11
1.78696e-11
1.78687e-11
1.78677e-11
1.78665e-11
1.78652e-11
1.78638e-11
1.78622e-11
1.78606e-11
1.78589e-11
1.78571e-11
1.78553e-11
1.78534e-11
1.78516e-11
1.78497e-11
1.78479e-11
1.78643e-11
1.78642e-11
1.7864e-11
1.78637e-11
1.78633e-11
1.78628e-11
1.78621e-11
1.78614e-11
1.78606e-11
1.78597e-11
1.78587e-11
1.78576e-11
1.78565e-11
1.78553e-11
1.7854e-11
1.78528e-11
1.78515e-11
1.78502e-11
1.78489e-11
1.78477e-11
1.78591e-11
1.7859e-11
1.78588e-11
1.78586e-11
1.78583e-11
1.7858e-11
1.78575e-11
1.7857e-11
1.78565e-11
1.78558e-11
1.78551e-11
1.78544e-11
1.78536e-11
1.78528e-11
1.78519e-11
1.7851e-11
1.78501e-11
1.78492e-11
1.78484e-11
1.78475e-11
1.78554e-11
1.78553e-11
1.78552e-11
1.78551e-11
1.78549e-11
1.78546e-11
1.78543e-11
1.7854e-11
1.78536e-11
1.78532e-11
1.78527e-11
1.78522e-11
1.78516e-11
1.7851e-11
1.78504e-11
1.78498e-11
1.78492e-11
1.78486e-11
1.7848e-11
1.78474e-11
1.78529e-11
1.78528e-11
1.78528e-11
1.78527e-11
1.78525e-11
1.78523e-11
1.78521e-11
1.78519e-11
1.78516e-11
1.78513e-11
1.7851e-11
1.78506e-11
1.78502e-11
1.78498e-11
1.78494e-11
1.7849e-11
1.78486e-11
1.78481e-11
1.78477e-11
1.78473e-11
1.78512e-11
1.78511e-11
1.78511e-11
1.7851e-11
1.78509e-11
1.78508e-11
1.78506e-11
1.78505e-11
1.78503e-11
1.78501e-11
1.78498e-11
1.78496e-11
1.78493e-11
1.7849e-11
1.78487e-11
1.78484e-11
1.78481e-11
1.78478e-11
1.78475e-11
1.78472e-11
1.785e-11
1.785e-11
1.785e-11
1.78499e-11
1.78499e-11
1.78498e-11
1.78497e-11
1.78495e-11
1.78494e-11
1.78492e-11
1.78491e-11
1.78489e-11
1.78487e-11
1.78485e-11
1.78483e-11
1.78481e-11
1.78478e-11
1.78476e-11
1.78474e-11
1.78472e-11
1.78494e-11
1.78494e-11
1.78493e-11
1.78493e-11
1.78492e-11
1.78492e-11
1.78491e-11
1.7849e-11
1.78489e-11
1.78488e-11
1.78486e-11
1.78485e-11
1.78483e-11
1.78482e-11
1.7848e-11
1.78478e-11
1.78477e-11
1.78475e-11
1.78473e-11
1.78472e-11
1.78491e-11
1.78491e-11
1.7849e-11
1.7849e-11
1.78489e-11
1.78489e-11
1.78488e-11
1.78487e-11
1.78486e-11
1.78485e-11
1.78484e-11
1.78483e-11
1.78482e-11
1.7848e-11
1.78479e-11
1.78477e-11
1.78476e-11
1.78474e-11
1.78473e-11
1.78472e-11
)
;

boundaryField
{
    topWall
    {
        type            zeroGradient;
    }
    bottomWall
    {
        type            zeroGradient;
    }
    sideWallL
    {
        type            symmetry;
    }
    sideWallR
    {
        type            zeroGradient;
    }
    frontAndBack
    {
        type            empty;
    }
}


// ************************************************************************* //
