/*--------------------------------*- C++ -*----------------------------------*\
  =========                 |
  \\      /  F ield         | OpenFOAM: The Open Source CFD Toolbox
   \\    /   O peration     | Website:  https://openfoam.org
    \\  /    A nd           | Version:  7
     \\/     M anipulation  |
\*---------------------------------------------------------------------------*/
FoamFile
{
    version     2.0;
    format      ascii;
    class       volScalarField;
    location    "28";
    object      rhot1;
}
// * * * * * * * * * * * * * * * * * * * * * * * * * * * * * * * * * * * * * //

dimensions      [1 -3 0 0 0 0 0];

internalField   nonuniform List<scalar> 
900
(
0.0498116
0.0497626
0.0496614
0.0495009
0.0492701
0.0489526
0.0485254
0.0479565
0.0472018
0.0462005
0.0448674
0.0430834
0.0406797
0.037416
0.0329532
0.0268388
0.0186306
0.00876665
0.00125108
1.05977e-06
0.00400893
0.00399582
0.00396881
0.00392628
0.00386571
0.00378355
0.00367505
0.00353417
0.00335347
0.00312424
0.00283708
0.00248346
0.00205919
0.0015711
0.00104844
0.000556267
0.000193078
2.82429e-05
5.73707e-07
7.05335e-11
0.000322515
0.000320613
0.000316713
0.000310623
0.000302053
0.00029062
0.000275863
0.000257269
0.00023435
0.000206767
0.00017455
0.000138438
0.000100303
6.34963e-05
3.26253e-05
1.19798e-05
2.49738e-06
1.91719e-07
2.37869e-09
1.28467e-12
2.66483e-05
2.64165e-05
2.59438e-05
2.52123e-05
2.41968e-05
2.28672e-05
2.1193e-05
1.91513e-05
1.67393e-05
1.39925e-05
1.10065e-05
7.95842e-06
5.10946e-06
2.76395e-06
1.16173e-06
3.33924e-07
5.35782e-08
3.49563e-09
5.95818e-11
2.08699e-13
2.33054e-06
2.30382e-06
2.24962e-06
2.16654e-06
2.05281e-06
1.9067e-06
1.72728e-06
1.51547e-06
1.2754e-06
1.01599e-06
7.52073e-07
5.04107e-07
2.94966e-07
1.4298e-07
5.32612e-08
1.36966e-08
2.09593e-09
1.58188e-10
4.97866e-12
8.06685e-14
2.22296e-07
2.19186e-07
2.12911e-07
2.03382e-07
1.9051e-07
1.74269e-07
1.54788e-07
1.32461e-07
1.08075e-07
8.28928e-08
5.86434e-08
3.73003e-08
2.06061e-08
9.43894e-09
3.37145e-09
8.68018e-10
1.46802e-10
1.49421e-11
9.05907e-13
4.62703e-14
2.37872e-08
2.34046e-08
2.26367e-08
2.14801e-08
1.99361e-08
1.80188e-08
1.57648e-08
1.3245e-08
1.05738e-08
7.9109e-09
5.44793e-09
3.37407e-09
1.82423e-09
8.29476e-10
3.03186e-10
8.46687e-11
1.7217e-11
2.49391e-12
2.75549e-13
3.26021e-14
2.9277e-09
2.87621e-09
2.77325e-09
2.61926e-09
2.41569e-09
2.1661e-09
1.87725e-09
1.56033e-09
1.23151e-09
9.11357e-10
6.22418e-10
3.84689e-10
2.10136e-10
9.87009e-11
3.86907e-11
1.23078e-11
3.12517e-12
6.44089e-13
1.19033e-13
2.58593e-14
4.23027e-10
4.15232e-10
3.99696e-10
3.76579e-10
3.46241e-10
3.09381e-10
2.67183e-10
2.21438e-10
1.74572e-10
1.2949e-10
8.91917e-11
5.61748e-11
3.17923e-11
1.58733e-11
6.87277e-12
2.5519e-12
8.15786e-13
2.32938e-13
6.57086e-14
2.20648e-14
7.28535e-11
7.15004e-11
6.88094e-11
6.48188e-11
5.96058e-11
5.33063e-11
4.61369e-11
3.84086e-11
3.05257e-11
2.29559e-11
1.61683e-11
1.05451e-11
6.29436e-12
3.40141e-12
1.65177e-12
7.2111e-13
2.87541e-13
1.09355e-13
4.31184e-14
1.97385e-14
1.50991e-11
1.48264e-11
1.42847e-11
1.34827e-11
1.24373e-11
1.11765e-11
9.74363e-12
8.19904e-12
6.6195e-12
5.09252e-12
3.70543e-12
2.5306e-12
1.61083e-12
9.51009e-13
5.20487e-13
2.66076e-13
1.29722e-13
6.27598e-14
3.19613e-14
1.82267e-14
3.7827e-12
3.71853e-12
3.59109e-12
3.40246e-12
3.15653e-12
2.85969e-12
2.52155e-12
2.15539e-12
1.77796e-12
1.40838e-12
1.06596e-12
7.67396e-13
5.23777e-13
3.38723e-13
2.08342e-13
1.232e-13
7.14685e-14
4.19313e-14
2.5811e-14
1.72032e-14
1.14572e-12
1.1281e-12
1.09308e-12
1.04119e-12
9.73421e-13
8.91362e-13
7.97416e-13
6.9489e-13
5.87976e-13
4.81515e-13
3.80531e-13
2.89588e-13
2.12096e-13
1.49799e-13
1.02612e-13
6.89027e-14
4.60922e-14
3.13505e-14
2.21393e-14
1.64897e-14
4.18229e-13
4.1261e-13
4.01434e-13
3.84844e-13
3.6311e-13
3.36671e-13
3.06194e-13
2.72608e-13
2.37106e-13
2.0109e-13
1.66067e-13
1.33481e-13
1.04526e-13
7.99871e-14
6.01564e-14
4.48495e-14
3.35215e-14
2.54335e-14
1.98153e-14
1.59816e-14
1.82812e-13
1.80753e-13
1.76652e-13
1.7055e-13
1.62525e-13
1.5271e-13
1.41308e-13
1.2861e-13
1.14995e-13
1.00922e-13
8.69021e-14
7.345e-14
6.10303e-14
5.00018e-14
4.05792e-14
3.2821e-14
2.6647e-14
2.1877e-14
1.82793e-14
1.56141e-14
9.46311e-14
9.37747e-14
9.20667e-14
8.95186e-14
8.61544e-14
8.20161e-14
7.71714e-14
7.1719e-14
6.57923e-14
5.95578e-14
5.32073e-14
4.69443e-14
4.09656e-14
3.54413e-14
3.04981e-14
2.62089e-14
2.25924e-14
1.96203e-14
1.72311e-14
1.53454e-14
5.70089e-14
5.66107e-14
5.58153e-14
5.46258e-14
5.30491e-14
5.10991e-14
4.87995e-14
4.61864e-14
4.33107e-14
4.02379e-14
3.70469e-14
3.3825e-14
3.06619e-14
2.76419e-14
2.48366e-14
2.22987e-14
2.00594e-14
1.81287e-14
1.64985e-14
1.51472e-14
3.9047e-14
3.88432e-14
3.84356e-14
3.78245e-14
3.70118e-14
3.60018e-14
3.4803e-14
3.34293e-14
3.19014e-14
3.02471e-14
2.85011e-14
2.67036e-14
2.48984e-14
2.31289e-14
2.14357e-14
1.9853e-14
1.84065e-14
1.71124e-14
1.59774e-14
1.50003e-14
2.96219e-14
2.95088e-14
2.92825e-14
2.89425e-14
2.84889e-14
2.7923e-14
2.72478e-14
2.64686e-14
2.55943e-14
2.46375e-14
2.36144e-14
2.25447e-14
2.14507e-14
2.03562e-14
1.92844e-14
1.82569e-14
1.7292e-14
1.64039e-14
1.56019e-14
1.48911e-14
2.42783e-14
2.42113e-14
2.40771e-14
2.38751e-14
2.36052e-14
2.32672e-14
2.28622e-14
2.23924e-14
2.18615e-14
2.12756e-14
2.06427e-14
1.9973e-14
1.92785e-14
1.85725e-14
1.78689e-14
1.71811e-14
1.65218e-14
1.59015e-14
1.53288e-14
1.48096e-14
2.10549e-14
2.1013e-14
2.09291e-14
2.08028e-14
2.06336e-14
2.04212e-14
2.0166e-14
1.98686e-14
1.95309e-14
1.91558e-14
1.87474e-14
1.83114e-14
1.78544e-14
1.73843e-14
1.69094e-14
1.64384e-14
1.59797e-14
1.5541e-14
1.51289e-14
1.47488e-14
1.90131e-14
1.89859e-14
1.89313e-14
1.88489e-14
1.87385e-14
1.85997e-14
1.84324e-14
1.8237e-14
1.80143e-14
1.77658e-14
1.74937e-14
1.72012e-14
1.68922e-14
1.65715e-14
1.62443e-14
1.59163e-14
1.5593e-14
1.52799e-14
1.49819e-14
1.47034e-14
1.76701e-14
1.76518e-14
1.76151e-14
1.75597e-14
1.74853e-14
1.73918e-14
1.72789e-14
1.71468e-14
1.69959e-14
1.68269e-14
1.66411e-14
1.64404e-14
1.62273e-14
1.60046e-14
1.57758e-14
1.55445e-14
1.53145e-14
1.50897e-14
1.48736e-14
1.46696e-14
1.67609e-14
1.67483e-14
1.67229e-14
1.66848e-14
1.66336e-14
1.65691e-14
1.64912e-14
1.64e-14
1.62956e-14
1.61784e-14
1.60493e-14
1.59094e-14
1.57602e-14
1.56036e-14
1.54418e-14
1.52773e-14
1.51127e-14
1.49506e-14
1.47937e-14
1.46444e-14
1.61319e-14
1.6123e-14
1.61053e-14
1.60785e-14
1.60427e-14
1.59975e-14
1.59429e-14
1.58789e-14
1.58056e-14
1.57232e-14
1.56323e-14
1.55336e-14
1.54281e-14
1.53169e-14
1.52017e-14
1.50841e-14
1.49658e-14
1.48487e-14
1.47348e-14
1.46257e-14
1.56898e-14
1.56835e-14
1.56709e-14
1.5652e-14
1.56265e-14
1.55944e-14
1.55557e-14
1.55104e-14
1.54583e-14
1.53999e-14
1.53353e-14
1.52651e-14
1.519e-14
1.51107e-14
1.50282e-14
1.49438e-14
1.48586e-14
1.4774e-14
1.46914e-14
1.46118e-14
1.53756e-14
1.53711e-14
1.53621e-14
1.53485e-14
1.53303e-14
1.53074e-14
1.52797e-14
1.52473e-14
1.52102e-14
1.51684e-14
1.51223e-14
1.50721e-14
1.50184e-14
1.49616e-14
1.49024e-14
1.48417e-14
1.47804e-14
1.47193e-14
1.46594e-14
1.46016e-14
1.51505e-14
1.51473e-14
1.51408e-14
1.51311e-14
1.5118e-14
1.51015e-14
1.50817e-14
1.50584e-14
1.50318e-14
1.50019e-14
1.49688e-14
1.49328e-14
1.48943e-14
1.48535e-14
1.48111e-14
1.47675e-14
1.47233e-14
1.46792e-14
1.46359e-14
1.45941e-14
1.49885e-14
1.49862e-14
1.49815e-14
1.49745e-14
1.49651e-14
1.49532e-14
1.4939e-14
1.49222e-14
1.49031e-14
1.48816e-14
1.48579e-14
1.48321e-14
1.48045e-14
1.47752e-14
1.47448e-14
1.47134e-14
1.46817e-14
1.465e-14
1.46188e-14
1.45885e-14
1.48717e-14
1.487e-14
1.48666e-14
1.48616e-14
1.48548e-14
1.48462e-14
1.48359e-14
1.48239e-14
1.48102e-14
1.47947e-14
1.47777e-14
1.47592e-14
1.47394e-14
1.47185e-14
1.46966e-14
1.46742e-14
1.46514e-14
1.46287e-14
1.46062e-14
1.45845e-14
1.47873e-14
1.47861e-14
1.47836e-14
1.478e-14
1.47751e-14
1.4769e-14
1.47616e-14
1.47529e-14
1.47431e-14
1.4732e-14
1.47198e-14
1.47066e-14
1.46924e-14
1.46774e-14
1.46618e-14
1.46457e-14
1.46295e-14
1.46132e-14
1.45971e-14
1.45816e-14
1.47264e-14
1.47255e-14
1.47238e-14
1.47211e-14
1.47176e-14
1.47132e-14
1.47079e-14
1.47017e-14
1.46946e-14
1.46867e-14
1.4678e-14
1.46686e-14
1.46584e-14
1.46478e-14
1.46366e-14
1.46252e-14
1.46136e-14
1.4602e-14
1.45905e-14
1.45794e-14
1.46825e-14
1.46819e-14
1.46806e-14
1.46787e-14
1.46762e-14
1.46731e-14
1.46693e-14
1.46648e-14
1.46598e-14
1.46541e-14
1.46479e-14
1.46412e-14
1.4634e-14
1.46264e-14
1.46185e-14
1.46104e-14
1.46021e-14
1.45939e-14
1.45858e-14
1.45779e-14
1.4651e-14
1.46505e-14
1.46496e-14
1.46483e-14
1.46465e-14
1.46442e-14
1.46415e-14
1.46384e-14
1.46348e-14
1.46308e-14
1.46264e-14
1.46216e-14
1.46165e-14
1.46111e-14
1.46055e-14
1.45998e-14
1.45939e-14
1.45881e-14
1.45824e-14
1.45768e-14
1.46284e-14
1.46281e-14
1.46274e-14
1.46265e-14
1.46252e-14
1.46236e-14
1.46217e-14
1.46194e-14
1.46169e-14
1.4614e-14
1.46109e-14
1.46076e-14
1.4604e-14
1.46002e-14
1.45962e-14
1.45922e-14
1.45881e-14
1.4584e-14
1.45799e-14
1.4576e-14
1.46123e-14
1.4612e-14
1.46116e-14
1.46109e-14
1.461e-14
1.46089e-14
1.46075e-14
1.46059e-14
1.46041e-14
1.46021e-14
1.45999e-14
1.45976e-14
1.4595e-14
1.45924e-14
1.45896e-14
1.45868e-14
1.45839e-14
1.4581e-14
1.45782e-14
1.45754e-14
1.46008e-14
1.46007e-14
1.46003e-14
1.45999e-14
1.45992e-14
1.45984e-14
1.45975e-14
1.45964e-14
1.45951e-14
1.45937e-14
1.45922e-14
1.45905e-14
1.45887e-14
1.45869e-14
1.45849e-14
1.45829e-14
1.45809e-14
1.45789e-14
1.45769e-14
1.4575e-14
1.45927e-14
1.45926e-14
1.45924e-14
1.45921e-14
1.45916e-14
1.45911e-14
1.45904e-14
1.45896e-14
1.45887e-14
1.45877e-14
1.45867e-14
1.45855e-14
1.45843e-14
1.4583e-14
1.45816e-14
1.45802e-14
1.45788e-14
1.45775e-14
1.45761e-14
1.45747e-14
1.4587e-14
1.4587e-14
1.45868e-14
1.45866e-14
1.45863e-14
1.45859e-14
1.45854e-14
1.45849e-14
1.45842e-14
1.45836e-14
1.45828e-14
1.4582e-14
1.45811e-14
1.45802e-14
1.45793e-14
1.45784e-14
1.45774e-14
1.45764e-14
1.45755e-14
1.45745e-14
1.45831e-14
1.4583e-14
1.45829e-14
1.45828e-14
1.45825e-14
1.45823e-14
1.45819e-14
1.45816e-14
1.45811e-14
1.45807e-14
1.45801e-14
1.45796e-14
1.4579e-14
1.45784e-14
1.45777e-14
1.4577e-14
1.45764e-14
1.45757e-14
1.4575e-14
1.45744e-14
1.45804e-14
1.45803e-14
1.45802e-14
1.45801e-14
1.458e-14
1.45798e-14
1.45795e-14
1.45793e-14
1.4579e-14
1.45787e-14
1.45783e-14
1.45779e-14
1.45775e-14
1.45771e-14
1.45766e-14
1.45761e-14
1.45757e-14
1.45752e-14
1.45748e-14
1.45743e-14
1.45785e-14
1.45785e-14
1.45784e-14
1.45783e-14
1.45782e-14
1.45781e-14
1.45779e-14
1.45777e-14
1.45775e-14
1.45773e-14
1.4577e-14
1.45768e-14
1.45765e-14
1.45762e-14
1.45759e-14
1.45755e-14
1.45752e-14
1.45749e-14
1.45746e-14
1.45742e-14
1.45773e-14
1.45773e-14
1.45772e-14
1.45772e-14
1.45771e-14
1.4577e-14
1.45769e-14
1.45767e-14
1.45766e-14
1.45764e-14
1.45762e-14
1.4576e-14
1.45758e-14
1.45756e-14
1.45754e-14
1.45751e-14
1.45749e-14
1.45747e-14
1.45744e-14
1.45742e-14
1.45766e-14
1.45766e-14
1.45765e-14
1.45765e-14
1.45764e-14
1.45763e-14
1.45762e-14
1.45761e-14
1.4576e-14
1.45759e-14
1.45757e-14
1.45756e-14
1.45754e-14
1.45753e-14
1.45751e-14
1.45749e-14
1.45747e-14
1.45745e-14
1.45744e-14
1.45742e-14
1.45762e-14
1.45762e-14
1.45762e-14
1.45762e-14
1.45761e-14
1.4576e-14
1.4576e-14
1.45759e-14
1.45758e-14
1.45756e-14
1.45755e-14
1.45754e-14
1.45752e-14
1.45751e-14
1.45749e-14
1.45748e-14
1.45746e-14
1.45745e-14
1.45743e-14
1.45742e-14
)
;

boundaryField
{
    topWall
    {
        type            zeroGradient;
    }
    bottomWall
    {
        type            zeroGradient;
    }
    sideWallL
    {
        type            symmetry;
    }
    sideWallR
    {
        type            calculated;
        value           uniform 0;
    }
    frontAndBack
    {
        type            empty;
    }
}


// ************************************************************************* //
