/*--------------------------------*- C++ -*----------------------------------*\
  =========                 |
  \\      /  F ield         | OpenFOAM: The Open Source CFD Toolbox
   \\    /   O peration     | Website:  https://openfoam.org
    \\  /    A nd           | Version:  7
     \\/     M anipulation  |
\*---------------------------------------------------------------------------*/
FoamFile
{
    version     2.0;
    format      ascii;
    class       volScalarField;
    location    "28";
    object      rhot2;
}
// * * * * * * * * * * * * * * * * * * * * * * * * * * * * * * * * * * * * * //

dimensions      [1 -3 0 0 0 0 0];

internalField   nonuniform List<scalar> 
900
(
6.61989e-05
6.60719e-05
6.58095e-05
6.53946e-05
6.48001e-05
6.39865e-05
6.28996e-05
6.14663e-05
5.95897e-05
5.71433e-05
5.3964e-05
4.98484e-05
4.45555e-05
3.78346e-05
2.95155e-05
1.97615e-05
9.68319e-06
2.22085e-06
4.96275e-08
5.01776e-14
4.7996e-07
4.76904e-07
4.70639e-07
4.60857e-07
4.47096e-07
4.28752e-07
4.051e-07
3.75363e-07
3.38837e-07
2.95122e-07
2.44516e-07
1.88583e-07
1.30839e-07
7.71713e-08
3.50461e-08
1.01727e-08
1.28994e-09
3.02949e-11
1.51146e-14
3.5818e-22
3.49319e-09
3.45314e-09
3.37174e-09
3.2465e-09
3.07417e-09
2.8514e-09
2.5759e-09
2.24819e-09
1.87416e-09
1.46802e-09
1.05498e-09
6.71234e-10
3.57982e-10
1.46706e-10
4.00119e-11
5.66517e-12
2.65796e-13
1.77652e-15
3.39975e-19
1.46514e-25
2.68122e-11
2.63595e-11
2.5448e-11
2.40681e-11
2.22146e-11
1.9897e-11
1.71557e-11
1.40808e-11
1.083e-11
7.63517e-12
4.78083e-12
2.53997e-12
1.0701e-12
3.22762e-13
5.95056e-14
5.22766e-15
1.47308e-16
7.18232e-19
2.5648e-22
4.2801e-27
2.30107e-13
2.24993e-13
2.14792e-13
1.99603e-13
1.79688e-13
1.55601e-13
1.28335e-13
9.9444e-14
7.10463e-14
4.56008e-14
2.5365e-14
1.16256e-14
4.08773e-15
9.95663e-16
1.45106e-16
1.02672e-17
2.64106e-19
1.71474e-21
2.03386e-24
6.76886e-28
2.34114e-15
2.27773e-15
2.1524e-15
1.96866e-15
1.73313e-15
1.45684e-15
1.15628e-15
8.53495e-16
5.74038e-16
3.42244e-16
1.74302e-16
7.2137e-17
2.26806e-17
4.94907e-18
6.64936e-19
4.72003e-20
1.47788e-21
1.72347e-23
7.37061e-26
2.30683e-28
2.98368e-17
2.89092e-17
2.70899e-17
2.44584e-17
2.11499e-17
1.73675e-17
1.33856e-17
9.53304e-18
6.14583e-18
3.4913e-18
1.68745e-18
6.63189e-19
2.00007e-19
4.30417e-20
6.05331e-21
5.04046e-22
2.26427e-23
5.26704e-25
7.28493e-27
1.17213e-28
5.00115e-19
4.83125e-19
4.50014e-19
4.02621e-19
3.43917e-19
2.78091e-19
2.10425e-19
1.46771e-19
9.25512e-20
5.14779e-20
2.44867e-20
9.58822e-21
2.95154e-21
6.7709e-22
1.09234e-22
1.17391e-23
8.14516e-25
3.77736e-26
1.42832e-27
7.49212e-29
1.14745e-20
1.10664e-20
1.02745e-20
9.14915e-21
7.76874e-21
6.23956e-21
4.68954e-21
3.25309e-21
2.04714e-21
1.14408e-21
5.53482e-22
2.24932e-22
7.42325e-23
1.91959e-23
3.76281e-24
5.47369e-25
5.96081e-26
5.23151e-27
4.51837e-28
5.5156e-29
3.71201e-22
3.57902e-22
3.32153e-22
2.95692e-22
2.5117e-22
2.02092e-22
1.5256e-22
1.06771e-22
6.82738e-23
3.9203e-23
1.98149e-23
8.62412e-24
3.15928e-24
9.53962e-25
2.34107e-25
4.67588e-26
7.84824e-27
1.20651e-27
2.00146e-28
4.44897e-29
1.72532e-23
1.66524e-23
1.54894e-23
1.38429e-23
1.18317e-23
9.61068e-24
7.35946e-24
5.26059e-24
3.46935e-24
2.0831e-24
1.12233e-24
5.34628e-25
2.22155e-25
7.97786e-26
2.47455e-26
6.73233e-27
1.67465e-27
4.11916e-28
1.12329e-28
3.81536e-29
1.16233e-24
1.12432e-24
1.05065e-24
9.46067e-25
8.17713e-25
6.74909e-25
5.28489e-25
3.89596e-25
2.68012e-25
1.70416e-25
9.91957e-26
5.23976e-26
2.49636e-26
1.07168e-26
4.17837e-27
1.51168e-27
5.28136e-28
1.89099e-28
7.44223e-29
3.41318e-29
1.13561e-25
1.10195e-25
1.03652e-25
9.4317e-26
8.27674e-26
6.9764e-26
5.62033e-26
4.30308e-26
3.11174e-26
2.11214e-26
1.33814e-26
7.8814e-27
4.31158e-27
2.19984e-27
1.05889e-27
4.91098e-28
2.26469e-28
1.07997e-28
5.53952e-29
3.14564e-29
1.59961e-26
1.55825e-26
1.47753e-26
1.36155e-26
1.21655e-26
1.05085e-26
8.74452e-27
6.98293e-27
5.33009e-27
3.87505e-27
2.67633e-27
1.75463e-27
1.09425e-27
6.53102e-28
3.77271e-28
2.14502e-28
1.22657e-28
7.22317e-29
4.47564e-29
2.96157e-29
3.2089e-27
3.13945e-27
3.00331e-27
2.80616e-27
2.55675e-27
2.26697e-27
1.95156e-27
1.62724e-27
1.31124e-27
1.0194e-27
7.64092e-28
5.52687e-28
3.86983e-28
2.63831e-28
1.76703e-28
1.17637e-28
7.89128e-29
5.40836e-29
3.83265e-29
2.83181e-29
8.97063e-28
8.81506e-28
8.50868e-28
8.06135e-28
7.48859e-28
6.81199e-28
6.0592e-28
5.26295e-28
4.45894e-28
3.68271e-28
2.96585e-28
2.33234e-28
1.7962e-28
1.36091e-28
1.02077e-28
7.63775e-29
5.74868e-29
4.38828e-29
3.42143e-29
2.73869e-29
3.37558e-28
3.33054e-28
3.24144e-28
3.11036e-28
2.94062e-28
2.73703e-28
2.50595e-28
2.25527e-28
1.99408e-28
1.7321e-28
1.47881e-28
1.24262e-28
1.02994e-28
8.44769e-29
6.88508e-29
5.60304e-29
4.5764e-29
3.77044e-29
3.14736e-29
2.67102e-29
1.63147e-28
1.61525e-28
1.58305e-28
1.53535e-28
1.47299e-28
1.39721e-28
1.30974e-28
1.21283e-28
1.10923e-28
1.00203e-28
8.94532e-29
7.89954e-29
6.91158e-29
6.00424e-29
5.19284e-29
4.48491e-29
3.88081e-29
3.37523e-29
2.95911e-29
2.62138e-29
9.61239e-29
9.54267e-29
9.40378e-29
9.19698e-29
8.9245e-29
8.58995e-29
8.19862e-29
7.75782e-29
7.27694e-29
6.76733e-29
6.24178e-29
5.71379e-29
5.19665e-29
4.70238e-29
4.24095e-29
3.81963e-29
3.4428e-29
3.11212e-29
2.82691e-29
2.58475e-29
6.57294e-29
6.5385e-29
6.46975e-29
6.36696e-29
6.23073e-29
6.06215e-29
5.86296e-29
5.63577e-29
5.38415e-29
5.11267e-29
4.82679e-29
4.53268e-29
4.23681e-29
3.9456e-29
3.665e-29
3.40006e-29
3.15475e-29
2.93176e-29
2.73258e-29
2.55761e-29
5.00826e-29
4.98937e-29
4.95157e-29
4.89489e-29
4.81945e-29
4.72556e-29
4.61381e-29
4.48519e-29
4.34115e-29
4.1837e-29
4.01537e-29
3.83915e-29
3.65839e-29
3.47664e-29
3.29739e-29
3.12395e-29
2.9592e-29
2.80547e-29
2.66452e-29
2.53745e-29
4.12252e-29
4.11129e-29
4.08882e-29
4.05504e-29
4.00996e-29
3.95363e-29
3.88623e-29
3.80815e-29
3.72003e-29
3.62281e-29
3.51772e-29
3.40633e-29
3.29046e-29
3.17213e-29
3.05345e-29
2.93653e-29
2.82335e-29
2.71569e-29
2.61501e-29
2.52246e-29
3.58458e-29
3.57752e-29
3.56335e-29
3.54205e-29
3.51355e-29
3.47784e-29
3.43496e-29
3.38508e-29
3.32848e-29
3.26561e-29
3.19715e-29
3.12393e-29
3.04701e-29
2.96756e-29
2.88691e-29
2.80641e-29
2.72741e-29
2.65116e-29
2.57881e-29
2.51131e-29
3.24057e-29
3.23593e-29
3.22662e-29
3.2126e-29
3.19383e-29
3.17027e-29
3.14192e-29
3.10884e-29
3.07116e-29
3.02914e-29
2.98313e-29
2.93362e-29
2.88124e-29
2.82672e-29
2.77089e-29
2.71463e-29
2.65885e-29
2.60445e-29
2.55226e-29
2.50303e-29
3.01213e-29
3.00899e-29
3.00268e-29
2.99317e-29
2.98044e-29
2.96443e-29
2.94516e-29
2.92262e-29
2.8969e-29
2.86812e-29
2.83651e-29
2.80236e-29
2.76604e-29
2.72804e-29
2.68888e-29
2.64915e-29
2.60948e-29
2.57048e-29
2.53277e-29
2.4969e-29
2.85625e-29
2.85407e-29
2.8497e-29
2.84312e-29
2.83429e-29
2.8232e-29
2.80983e-29
2.79418e-29
2.7763e-29
2.75626e-29
2.7342e-29
2.71031e-29
2.68482e-29
2.65804e-29
2.63033e-29
2.60209e-29
2.57374e-29
2.54572e-29
2.51845e-29
2.49235e-29
2.7478e-29
2.74627e-29
2.74319e-29
2.73856e-29
2.73236e-29
2.72456e-29
2.71516e-29
2.70415e-29
2.69157e-29
2.67745e-29
2.6619e-29
2.64502e-29
2.62698e-29
2.60798e-29
2.58827e-29
2.56811e-29
2.5478e-29
2.52764e-29
2.50794e-29
2.489e-29
2.67132e-29
2.67023e-29
2.66805e-29
2.66476e-29
2.66035e-29
2.65482e-29
2.64815e-29
2.64034e-29
2.63141e-29
2.6214e-29
2.61035e-29
2.59836e-29
2.58553e-29
2.57199e-29
2.55792e-29
2.54351e-29
2.52894e-29
2.51445e-29
2.50024e-29
2.48654e-29
2.61689e-29
2.61612e-29
2.61456e-29
2.61221e-29
2.60906e-29
2.60511e-29
2.60035e-29
2.59479e-29
2.58842e-29
2.58128e-29
2.57341e-29
2.56486e-29
2.55571e-29
2.54605e-29
2.536e-29
2.52568e-29
2.51525e-29
2.50484e-29
2.49462e-29
2.48473e-29
2.57795e-29
2.57739e-29
2.57627e-29
2.57459e-29
2.57233e-29
2.56951e-29
2.5661e-29
2.56212e-29
2.55757e-29
2.55248e-29
2.54686e-29
2.54075e-29
2.53422e-29
2.52733e-29
2.52015e-29
2.51277e-29
2.50531e-29
2.49785e-29
2.49051e-29
2.48341e-29
2.54999e-29
2.54959e-29
2.54879e-29
2.54758e-29
2.54597e-29
2.54394e-29
2.5415e-29
2.53866e-29
2.53541e-29
2.53176e-29
2.52775e-29
2.5234e-29
2.51874e-29
2.51382e-29
2.5087e-29
2.50344e-29
2.49811e-29
2.49278e-29
2.48754e-29
2.48245e-29
2.5299e-29
2.52962e-29
2.52904e-29
2.52818e-29
2.52702e-29
2.52557e-29
2.52383e-29
2.52179e-29
2.51947e-29
2.51687e-29
2.51401e-29
2.51091e-29
2.50759e-29
2.50409e-29
2.50045e-29
2.49671e-29
2.49291e-29
2.48912e-29
2.48538e-29
2.48175e-29
2.51548e-29
2.51527e-29
2.51486e-29
2.51424e-29
2.51341e-29
2.51238e-29
2.51113e-29
2.50968e-29
2.50803e-29
2.50618e-29
2.50415e-29
2.50194e-29
2.49959e-29
2.4971e-29
2.49452e-29
2.49186e-29
2.48917e-29
2.48648e-29
2.48382e-29
2.48125e-29
2.50514e-29
2.50499e-29
2.50469e-29
2.50425e-29
2.50366e-29
2.50293e-29
2.50204e-29
2.50101e-29
2.49984e-29
2.49852e-29
2.49708e-29
2.49552e-29
2.49385e-29
2.49209e-29
2.49027e-29
2.48839e-29
2.48649e-29
2.48458e-29
2.48271e-29
2.48089e-29
2.49774e-29
2.49764e-29
2.49743e-29
2.49711e-29
2.4967e-29
2.49617e-29
2.49554e-29
2.49481e-29
2.49398e-29
2.49305e-29
2.49204e-29
2.49093e-29
2.48976e-29
2.48852e-29
2.48723e-29
2.48591e-29
2.48457e-29
2.48323e-29
2.48191e-29
2.48063e-29
2.49247e-29
2.4924e-29
2.49225e-29
2.49203e-29
2.49173e-29
2.49136e-29
2.49092e-29
2.4904e-29
2.48982e-29
2.48916e-29
2.48845e-29
2.48767e-29
2.48684e-29
2.48597e-29
2.48507e-29
2.48414e-29
2.48321e-29
2.48227e-29
2.48134e-29
2.48044e-29
2.48873e-29
2.48868e-29
2.48857e-29
2.48842e-29
2.48821e-29
2.48795e-29
2.48764e-29
2.48728e-29
2.48686e-29
2.48641e-29
2.4859e-29
2.48536e-29
2.48478e-29
2.48417e-29
2.48354e-29
2.4829e-29
2.48224e-29
2.48159e-29
2.48094e-29
2.48031e-29
2.48609e-29
2.48605e-29
2.48598e-29
2.48587e-29
2.48572e-29
2.48554e-29
2.48532e-29
2.48507e-29
2.48478e-29
2.48446e-29
2.48411e-29
2.48373e-29
2.48333e-29
2.48291e-29
2.48247e-29
2.48202e-29
2.48156e-29
2.48111e-29
2.48066e-29
2.48022e-29
2.48423e-29
2.48421e-29
2.48416e-29
2.48408e-29
2.48398e-29
2.48385e-29
2.4837e-29
2.48352e-29
2.48332e-29
2.4831e-29
2.48285e-29
2.48259e-29
2.48231e-29
2.48202e-29
2.48171e-29
2.4814e-29
2.48109e-29
2.48077e-29
2.48046e-29
2.48016e-29
2.48294e-29
2.48292e-29
2.48289e-29
2.48283e-29
2.48276e-29
2.48267e-29
2.48257e-29
2.48245e-29
2.48231e-29
2.48215e-29
2.48198e-29
2.4818e-29
2.4816e-29
2.4814e-29
2.48119e-29
2.48097e-29
2.48076e-29
2.48054e-29
2.48032e-29
2.48011e-29
2.48205e-29
2.48204e-29
2.48201e-29
2.48198e-29
2.48193e-29
2.48186e-29
2.48179e-29
2.4817e-29
2.48161e-29
2.4815e-29
2.48138e-29
2.48125e-29
2.48112e-29
2.48098e-29
2.48083e-29
2.48068e-29
2.48053e-29
2.48038e-29
2.48023e-29
2.48008e-29
2.48145e-29
2.48144e-29
2.48142e-29
2.4814e-29
2.48136e-29
2.48132e-29
2.48126e-29
2.4812e-29
2.48113e-29
2.48106e-29
2.48097e-29
2.48088e-29
2.48079e-29
2.48069e-29
2.48059e-29
2.48048e-29
2.48037e-29
2.48027e-29
2.48016e-29
2.48006e-29
2.48106e-29
2.48105e-29
2.48104e-29
2.48102e-29
2.48099e-29
2.48096e-29
2.48092e-29
2.48088e-29
2.48083e-29
2.48077e-29
2.48071e-29
2.48064e-29
2.48058e-29
2.4805e-29
2.48043e-29
2.48035e-29
2.48027e-29
2.4802e-29
2.48012e-29
2.48005e-29
2.48082e-29
2.48081e-29
2.4808e-29
2.48079e-29
2.48077e-29
2.48074e-29
2.48071e-29
2.48068e-29
2.48064e-29
2.4806e-29
2.48055e-29
2.4805e-29
2.48045e-29
2.48039e-29
2.48033e-29
2.48027e-29
2.48022e-29
2.48016e-29
2.4801e-29
2.48004e-29
2.48071e-29
2.4807e-29
2.4807e-29
2.48068e-29
2.48067e-29
2.48064e-29
2.48062e-29
2.48059e-29
2.48055e-29
2.48052e-29
2.48048e-29
2.48043e-29
2.48039e-29
2.48034e-29
2.48029e-29
2.48024e-29
2.48019e-29
2.48014e-29
2.48009e-29
2.48004e-29
)
;

boundaryField
{
    topWall
    {
        type            zeroGradient;
    }
    bottomWall
    {
        type            zeroGradient;
    }
    sideWallL
    {
        type            symmetry;
    }
    sideWallR
    {
        type            zeroGradient;
    }
    frontAndBack
    {
        type            empty;
    }
}


// ************************************************************************* //
