/*--------------------------------*- C++ -*----------------------------------*\
  =========                 |
  \\      /  F ield         | OpenFOAM: The Open Source CFD Toolbox
   \\    /   O peration     | Website:  https://openfoam.org
    \\  /    A nd           | Version:  7
     \\/     M anipulation  |
\*---------------------------------------------------------------------------*/
FoamFile
{
    version     2.0;
    format      ascii;
    class       volScalarField;
    location    "28";
    object      T;
}
// * * * * * * * * * * * * * * * * * * * * * * * * * * * * * * * * * * * * * //

dimensions      [0 0 0 1 0 0 0];

internalField   nonuniform List<scalar> 
900
(
531.941
531.924
531.889
531.834
531.754
531.645
531.497
531.299
531.035
530.68
530.197
529.534
528.602
527.256
525.233
522.009
516.388
505.175
478.339
400.402
495.177
495.128
495.028
494.87
494.642
494.329
493.906
493.343
492.591
491.585
490.228
488.373
485.797
482.136
476.782
468.644
455.673
433.839
395.237
326.459
463.102
463.025
462.868
462.618
462.26
461.768
461.109
460.231
459.068
457.522
455.455
452.666
448.857
443.575
436.116
425.363
409.549
385.968
351.02
301.98
435.076
434.976
434.77
434.445
433.98
433.345
432.495
431.373
429.895
427.95
425.381
421.968
417.404
411.248
402.873
391.402
375.661
354.254
326.024
291.369
410.655
410.537
410.295
409.913
409.368
408.627
407.642
406.349
404.663
402.467
399.607
395.874
390.99
384.584
376.178
365.178
350.918
332.821
310.759
285.696
389.448
389.318
389.051
388.631
388.035
387.227
386.16
384.77
382.976
380.667
377.704
373.905
369.041
362.831
354.942
345.014
332.721
317.903
300.781
282.212
371.102
370.965
370.684
370.245
369.622
368.784
367.685
366.266
364.451
362.145
359.227
355.552
350.943
345.201
338.111
329.477
319.169
307.214
293.904
279.882
355.293
355.155
354.871
354.428
353.804
352.967
351.878
350.484
348.719
346.503
343.739
340.314
336.1
330.964
324.778
317.446
308.942
299.363
288.974
278.237
341.73
341.594
341.317
340.884
340.277
339.468
338.422
337.094
335.43
333.365
330.824
327.723
323.973
319.489
314.201
308.074
301.13
293.478
285.338
277.034
330.146
330.017
329.751
329.34
328.765
328.003
327.024
325.793
324.263
322.386
320.105
317.359
314.09
310.247
305.796
300.732
295.099
288.998
282.599
276.133
320.299
320.178
319.93
319.548
319.015
318.313
317.418
316.3
314.924
313.253
311.244
308.857
306.054
302.806
299.102
294.953
290.405
285.546
280.505
275.446
311.968
311.857
311.631
311.282
310.798
310.165
309.361
308.365
307.149
305.686
303.946
301.902
299.53
296.817
293.762
290.385
286.728
282.862
278.885
274.916
304.954
304.854
304.651
304.339
303.907
303.345
302.635
301.762
300.705
299.443
297.956
296.227
294.243
291.998
289.498
286.764
283.833
280.762
277.623
274.504
299.079
298.99
298.811
298.535
298.157
297.665
297.048
296.293
295.386
294.311
293.057
291.61
289.966
288.123
286.091
283.888
281.546
279.11
276.634
274.182
294.182
294.105
293.949
293.709
293.381
292.957
292.428
291.784
291.014
290.11
289.062
287.864
286.512
285.011
283.368
281.601
279.736
277.807
275.856
273.928
290.122
290.056
289.921
289.716
289.435
289.074
288.625
288.082
287.437
286.684
285.816
284.832
283.73
282.514
281.193
279.782
278.302
276.778
275.242
273.728
286.773
286.717
286.603
286.428
286.191
285.887
285.51
285.057
284.521
283.9
283.188
282.386
281.493
280.515
279.458
278.336
277.165
275.964
274.757
273.571
284.025
283.977
283.882
283.736
283.537
283.283
282.971
282.596
282.156
281.647
281.068
280.419
279.7
278.917
278.076
277.188
276.264
275.32
274.375
273.446
281.782
281.742
281.662
281.541
281.377
281.167
280.91
280.603
280.244
279.831
279.363
278.841
278.267
277.644
276.978
276.277
275.551
274.812
274.073
273.348
279.96
279.927
279.862
279.762
279.627
279.456
279.246
278.997
278.706
278.374
277.998
277.582
277.125
276.632
276.107
275.556
274.988
274.411
273.835
273.271
278.488
278.462
278.408
278.327
278.218
278.079
277.909
277.708
277.475
277.209
276.91
276.579
276.218
275.83
275.418
274.987
274.544
274.095
273.648
273.21
277.306
277.285
277.241
277.176
277.088
276.976
276.84
276.679
276.493
276.282
276.045
275.784
275.5
275.196
274.874
274.539
274.195
273.847
273.501
273.162
276.361
276.344
276.309
276.257
276.186
276.097
275.989
275.861
275.714
275.547
275.361
275.156
274.935
274.698
274.448
274.188
273.921
273.653
273.386
273.125
275.611
275.597
275.569
275.527
275.471
275.401
275.315
275.215
275.099
274.968
274.822
274.663
274.491
274.307
274.113
273.913
273.708
273.501
273.296
273.096
275.017
275.006
274.984
274.951
274.907
274.852
274.785
274.706
274.615
274.513
274.4
274.277
274.143
274.001
273.853
273.699
273.541
273.383
273.226
273.073
274.55
274.542
274.525
274.499
274.464
274.421
274.369
274.307
274.237
274.158
274.071
273.976
273.873
273.764
273.65
273.532
273.412
273.292
273.172
273.056
274.185
274.179
274.165
274.145
274.119
274.085
274.044
273.997
273.943
273.882
273.815
273.742
273.663
273.58
273.494
273.404
273.313
273.221
273.131
273.042
273.901
273.896
273.886
273.871
273.85
273.824
273.793
273.757
273.715
273.669
273.617
273.562
273.502
273.439
273.373
273.305
273.236
273.167
273.099
273.032
273.682
273.678
273.67
273.658
273.642
273.623
273.599
273.571
273.539
273.504
273.465
273.423
273.378
273.33
273.28
273.229
273.177
273.125
273.074
273.024
273.513
273.51
273.504
273.495
273.483
273.468
273.45
273.429
273.405
273.378
273.349
273.317
273.283
273.247
273.21
273.172
273.133
273.094
273.055
273.018
273.384
273.382
273.377
273.37
273.361
273.35
273.336
273.32
273.302
273.282
273.26
273.236
273.211
273.184
273.156
273.128
273.099
273.07
273.041
273.013
273.286
273.284
273.281
273.276
273.269
273.26
273.25
273.238
273.225
273.21
273.193
273.175
273.156
273.137
273.116
273.095
273.073
273.052
273.03
273.01
273.212
273.21
273.208
273.204
273.199
273.193
273.185
273.176
273.166
273.155
273.143
273.129
273.115
273.101
273.085
273.07
273.054
273.038
273.022
273.007
273.156
273.155
273.153
273.15
273.146
273.142
273.136
273.13
273.122
273.114
273.105
273.095
273.085
273.074
273.063
273.051
273.04
273.028
273.016
273.005
273.114
273.114
273.112
273.11
273.107
273.104
273.1
273.095
273.089
273.083
273.077
273.069
273.062
273.054
273.046
273.037
273.029
273.02
273.012
273.004
273.083
273.083
273.082
273.08
273.078
273.076
273.072
273.069
273.065
273.061
273.056
273.051
273.045
273.039
273.033
273.027
273.021
273.015
273.009
273.003
273.06
273.06
273.059
273.058
273.057
273.055
273.053
273.05
273.047
273.044
273.04
273.037
273.033
273.028
273.024
273.02
273.015
273.011
273.006
273.002
273.044
273.043
273.043
273.042
273.041
273.039
273.038
273.036
273.034
273.032
273.029
273.026
273.023
273.02
273.017
273.014
273.011
273.008
273.005
273.001
273.031
273.031
273.031
273.03
273.029
273.028
273.027
273.026
273.024
273.023
273.021
273.019
273.017
273.015
273.012
273.01
273.008
273.006
273.003
273.001
273.022
273.022
273.022
273.022
273.021
273.02
273.02
273.019
273.017
273.016
273.015
273.014
273.012
273.01
273.009
273.007
273.006
273.004
273.002
273.001
273.016
273.016
273.016
273.016
273.015
273.015
273.014
273.013
273.013
273.012
273.011
273.01
273.009
273.008
273.006
273.005
273.004
273.003
273.002
273.001
273.012
273.012
273.012
273.011
273.011
273.011
273.01
273.01
273.009
273.009
273.008
273.007
273.006
273.006
273.005
273.004
273.003
273.002
273.001
273
273.009
273.009
273.009
273.009
273.008
273.008
273.008
273.007
273.007
273.006
273.006
273.005
273.005
273.004
273.004
273.003
273.002
273.002
273.001
273
273.007
273.007
273.007
273.007
273.007
273.006
273.006
273.006
273.006
273.005
273.005
273.004
273.004
273.003
273.003
273.002
273.002
273.001
273.001
273
273.006
273.006
273.006
273.006
273.006
273.006
273.005
273.005
273.005
273.005
273.004
273.004
273.003
273.003
273.002
273.002
273.002
273.001
273.001
273
)
;

boundaryField
{
    topWall
    {
        type            zeroGradient;
    }
    bottomWall
    {
        type            codedFixedValue;
        value           uniform 553;
        name            heating;
        code            #{
            const scalar t = this->db().time().value();
            const scalar Ttemp = 273 + 10*t;
            operator==(Ttemp);
        #};
    }
    sideWallL
    {
        type            symmetry;
    }
    sideWallR
    {
        type            fixedValue;
        value           uniform 273;
    }
    frontAndBack
    {
        type            empty;
    }
}


// ************************************************************************* //
