/*--------------------------------*- C++ -*----------------------------------*\
  =========                 |
  \\      /  F ield         | OpenFOAM: The Open Source CFD Toolbox
   \\    /   O peration     | Website:  https://openfoam.org
    \\  /    A nd           | Version:  7
     \\/     M anipulation  |
\*---------------------------------------------------------------------------*/
FoamFile
{
    version     2.0;
    format      ascii;
    class       volScalarField;
    location    "9";
    object      gradTx;
}
// * * * * * * * * * * * * * * * * * * * * * * * * * * * * * * * * * * * * * //

dimensions      [0 -1 0 1 0 0 0];

internalField   nonuniform List<scalar> 
900
(
-1.03198
-3.34228
-6.44745
-11.0758
-18.2985
-29.77
-48.1049
-77.4935
-124.746
-201.129
-325.771
-532.329
-883.14
-1502.22
-2661.98
-5043.25
-10627
-26127.1
-77311.1
-269541
-2.95551
-9.56747
-18.4393
-31.634
-52.1731
-84.6986
-136.5
-219.164
-351.322
-563.357
-905.793
-1464.88
-2392.98
-3970.98
-6742.67
-11814.1
-21516
-40702.9
-77973
-136870
-4.5697
-14.7797
-28.4357
-48.6619
-79.9964
-129.343
-207.414
-330.983
-526.504
-836.033
-1327.14
-2109.83
-3366.05
-5401.11
-8731.67
-14222.8
-23240.3
-37550.6
-57868.6
-78021.8
-5.75071
-18.5762
-35.6535
-60.8003
-99.4987
-159.974
-254.78
-403.176
-634.764
-995.061
-1554.08
-2419.45
-3755.88
-5812.18
-8952.07
-13667.4
-20501.1
-29690.4
-40168.6
-47783.6
-6.43938
-20.7687
-39.7426
-67.4825
-109.823
-175.372
-277.007
-434.012
-675.137
-1042.93
-1599.69
-2435.25
-3675.9
-5491.64
-8092.82
-11695
-16407.9
-21983.7
-27395.3
-30511.5
-6.64447
-21.3923
-40.7965
-68.9332
-111.481
-176.659
-276.49
-428.502
-657.97
-1000.78
-1506.77
-2243.04
-3295.67
-4766.33
-6756.81
-9329.08
-12425
-15738.8
-18584.9
-19933.2
-6.4313
-20.6662
-39.2658
-65.9956
-106.01
-166.619
-258.261
-395.724
-599.604
-897.895
-1327.39
-1934.14
-2771.57
-3893.51
-5338.41
-7099.68
-9079.93
-11038.2
-12566.5
-13168.4
-5.90137
-18.9251
-35.8181
-59.8681
-95.4938
-148.829
-228.418
-346.012
-517.405
-763.125
-1108.65
-1583.49
-2218.12
-3037.26
-4047.81
-5220.56
-6467.69
-7625.31
-8460.92
-8731.59
-5.1697
-16.5445
-31.1885
-51.837
-82.0981
-126.872
-192.816
-288.817
-426.392
-619.853
-885.933
-1242.44
-1705.34
-2283.53
-2970.94
-3736.43
-4514.05
-5199.63
-5662.88
-5782.27
-4.34521
-13.8771
-26.0567
-43.065
-67.7265
-103.794
-156.239
-231.504
-337.643
-484.216
-681.725
-940.337
-1267.57
-1664.74
-2122.2
-2614.24
-3095.48
-3502.08
-3761.35
-3811.15
-3.5175
-11.2108
-20.9682
-34.4647
-53.8297
-81.8325
-122.051
-178.99
-258.08
-365.477
-507.512
-689.669
-914.949
-1181.61
-1480.52
-1792.74
-2088.6
-2329.77
-2475.67
-2493.96
-2.75064
-8.74934
-16.3024
-26.6529
-41.3534
-62.3807
-92.2277
-133.944
-191.079
-267.468
-366.792
-491.824
-643.359
-818.86
-1011.04
-1206.87
-1387.55
-1530.39
-1612.68
-1617.34
-2.08286
-6.61259
-12.2761
-19.9678
-30.7852
-46.098
-67.5932
-97.2774
-137.406
-190.302
-258.027
-341.876
-441.701
-555.138
-676.89
-798.351
-907.91
-992.24
-1038.63
-1037.95
-1.53034
-4.8496
-8.97184
-14.5221
-22.2551
-33.094
-48.1507
-68.7121
-96.1757
-131.911
-177.034
-232.076
-296.583
-368.68
-444.733
-519.242
-585.156
-634.714
-660.793
-658.479
-1.09283
-3.45714
-6.37465
-10.2706
-15.6505
-23.1214
-33.3982
-47.2874
-65.635
-89.2295
-118.651
-154.068
-195.003
-240.097
-286.956
-332.153
-371.469
-400.419
-415.012
-412.594
-0.759604
-2.39904
-4.4098
-7.07404
-10.7222
-15.7439
-22.5891
-31.7519
-43.734
-58.9785
-77.7748
-100.136
-125.666
-153.435
-181.917
-209.02
-232.252
-249.041
-257.158
-255.165
-0.514552
-1.62259
-2.97381
-4.75099
-7.1652
-10.4613
-14.9161
-20.8267
-28.4845
-38.1331
-49.9097
-63.7731
-79.4295
-96.2707
-113.349
-129.409
-142.999
-152.656
-157.138
-155.666
-0.340058
-1.07078
-1.95708
-3.11469
-4.67553
-6.79019
-9.62582
-13.3575
-18.1514
-24.1386
-31.3797
-39.8241
-49.2691
-59.3297
-69.4302
-78.8312
-86.6962
-92.1991
-94.6533
-93.638
-0.219468
-0.690124
-1.2581
-1.9951
-2.98187
-4.30921
-6.07611
-8.38392
-11.3257
-14.9705
-19.3424
-24.398
-30.0044
-35.9246
-41.8162
-47.2501
-51.7504
-54.855
-56.1865
-55.5184
-0.138435
-0.43476
-0.790656
-1.24964
-1.86015
-2.67589
-3.75441
-5.15338
-6.92406
-9.10191
-11.6949
-14.6708
-17.9459
-21.3776
-24.7664
-27.8668
-30.4114
-32.1443
-32.8594
-32.4358
-0.0854079
-0.267909
-0.486123
-0.765929
-1.13582
-1.62699
-2.27231
-3.10403
-4.14991
-5.42782
-6.93912
-8.66185
-10.5448
-12.5044
-14.4261
-16.1718
-17.5929
-18.5492
-18.9293
-18.6689
-0.0515724
-0.161594
-0.292598
-0.459674
-0.679276
-0.969184
-1.34786
-1.83306
-2.43956
-3.17616
-4.042
-5.02293
-6.08855
-7.19077
-8.26506
-9.23468
-10.0183
-10.5398
-10.7396
-10.5838
-0.0304972
-0.0954589
-0.172509
-0.27028
-0.398098
-0.565924
-0.783955
-1.0618
-1.40723
-1.82444
-2.31214
-2.86163
-3.45527
-4.06595
-4.65787
-5.18907
-5.61552
-5.8965
-6.00031
-5.90925
-0.0176708
-0.0552579
-0.0996769
-0.155776
-0.228746
-0.324074
-0.447298
-0.603543
-0.796815
-1.02908
-1.29923
-1.60208
-1.92764
-2.26089
-2.58232
-2.86929
-3.09828
-3.24775
-3.30104
-3.24902
-0.0100374
-0.0313592
-0.0564707
-0.0880451
-0.128923
-0.182073
-0.250457
-0.336765
-0.443034
-0.570155
-0.717334
-0.881579
-1.05735
-1.23647
-1.40847
-1.56132
-1.68261
-1.7611
-1.78813
-1.75902
-0.00559163
-0.0174549
-0.0313823
-0.0488216
-0.0712999
-0.100399
-0.137675
-0.184521
-0.241955
-0.310369
-0.389247
-0.476907
-0.570336
-0.665166
-0.755855
-0.836104
-0.899473
-0.940139
-0.953679
-0.937717
-0.00305626
-0.00953297
-0.0171139
-0.0265696
-0.0387072
-0.0543552
-0.07432
-0.0993101
-0.129829
-0.166041
-0.20763
-0.253677
-0.302572
-0.352018
-0.399133
-0.440664
-0.473308
-0.494099
-0.500795
-0.492207
-0.0016396
-0.00511042
-0.00916164
-0.0141964
-0.0206341
-0.0289018
-0.0394107
-0.0525163
-0.0684631
-0.087317
-0.108895
-0.132702
-0.157897
-0.183292
-0.207408
-0.228591
-0.245172
-0.255657
-0.258926
-0.254391
-0.000863642
-0.00269
-0.00481619
-0.00744954
-0.0108045
-0.0150977
-0.0205354
-0.0272936
-0.0354892
-0.0451469
-0.0561641
-0.0682812
-0.0810647
-0.0939103
-0.106072
-0.116721
-0.125023
-0.130239
-0.131814
-0.129462
-0.000446804
-0.00139077
-0.00248701
-0.00384038
-0.00555875
-0.00775024
-0.0105169
-0.0139444
-0.0180879
-0.0229556
-0.0284921
-0.0345636
-0.0409507
-0.047351
-0.0533939
-0.0586693
-0.0627675
-0.065326
-0.0660753
-0.0648764
-0.000227102
-0.000706476
-0.0012619
-0.00194553
-0.00281075
-0.00391071
-0.00529509
-0.00700502
-0.00906617
-0.0114808
-0.0142195
-0.0172147
-0.0203575
-0.0234987
-0.0264569
-0.0290324
-0.0310265
-0.0322642
-0.0326159
-0.0320153
-0.00011344
-0.000352696
-0.000629306
-0.000968804
-0.00139718
-0.00194017
-0.00262159
-0.0034609
-0.00446988
-0.00564876
-0.00698247
-0.00843751
-0.00996053
-0.0114792
-0.012906
-0.0141451
-0.0151016
-0.015692
-0.0158549
-0.015559
-5.57038e-05
-0.000173095
-0.000308539
-0.000474331
-0.000682934
-0.000946606
-0.00127661
-0.00168202
-0.00216815
-0.00273475
-0.00337424
-0.00407031
-0.00479728
-0.0055206
-0.00619869
-0.00678621
-0.00723842
-0.00751612
-0.00759055
-0.00744724
-2.68963e-05
-8.35337e-05
-0.000148756
-0.000228392
-0.000328323
-0.000454302
-0.000611571
-0.000804307
-0.00103488
-0.00130299
-0.00160494
-0.00193289
-0.0022747
-0.00261411
-0.00293165
-0.0032062
-0.00341694
-0.00354574
-0.00357931
-0.003511
-1.27709e-05
-3.96481e-05
-7.05445e-05
-0.000108177
-0.000155281
-0.000214517
-0.000288288
-0.000378486
-0.000486151
-0.000611085
-0.000751493
-0.000903694
-0.00106202
-0.00121894
-0.00136547
-0.00149192
-0.00158873
-0.00164764
-0.00166257
-0.00163054
-5.96735e-06
-1.85139e-05
-3.29121e-05
-5.04127e-05
-7.22648e-05
-9.96802e-05
-0.000133745
-0.000175306
-0.000224813
-0.000282145
-0.000346455
-0.000416038
-0.00048829
-0.000559778
-0.000626421
-0.000683819
-0.000727664
-0.000754225
-0.000760784
-0.000745999
-2.74252e-06
-8.50574e-06
-1.51092e-05
-2.31194e-05
-3.30988e-05
-4.55912e-05
-6.10792e-05
-7.99353e-05
-0.000102354
-0.00012827
-0.000157289
-0.00018863
-0.000221119
-0.000253214
-0.000283085
-0.000308767
-0.000328344
-0.000340155
-0.000342996
-0.000336278
-1.2426e-06
-3.84858e-06
-6.82742e-06
-1.04361e-05
-1.4922e-05
-2.05275e-05
-2.74625e-05
-3.58881e-05
-4.58877e-05
-5.74295e-05
-7.03312e-05
-8.424e-05
-9.86365e-05
-0.000112839
-0.000126035
-0.000137364
-0.00014598
-0.000151161
-0.000152376
-0.00014937
-5.53113e-07
-1.71219e-06
-3.03661e-06
-4.63801e-06
-6.62464e-06
-9.09967e-06
-1.21583e-05
-1.58695e-05
-2.02641e-05
-2.53254e-05
-3.09772e-05
-3.70616e-05
-4.33491e-05
-4.95428e-05
-5.52901e-05
-6.02168e-05
-6.39571e-05
-6.61971e-05
-6.67105e-05
-6.53862e-05
-2.40896e-07
-7.48438e-07
-1.32899e-06
-2.03017e-06
-2.89618e-06
-3.97411e-06
-5.30327e-06
-6.91247e-06
-8.81355e-06
-1.10014e-05
-1.34417e-05
-1.60647e-05
-1.87728e-05
-2.14357e-05
-2.39043e-05
-2.6017e-05
-2.76182e-05
-2.85726e-05
-2.87864e-05
-2.82103e-05
-1.04016e-07
-3.22381e-07
-5.71747e-07
-8.74307e-07
-1.24734e-06
-1.7105e-06
-2.2792e-06
-2.96716e-06
-3.77777e-06
-4.70899e-06
-5.74627e-06
-6.86249e-06
-8.0131e-06
-9.14237e-06
-1.01886e-05
-1.10826e-05
-1.17568e-05
-1.21586e-05
-1.22474e-05
-1.19994e-05
-4.31987e-08
-1.35864e-07
-2.4276e-07
-3.70831e-07
-5.2804e-07
-7.2506e-07
-9.66295e-07
-1.25581e-06
-1.5975e-06
-1.98917e-06
-2.42387e-06
-2.89279e-06
-3.37543e-06
-3.84739e-06
-4.28463e-06
-4.65817e-06
-4.94091e-06
-5.10761e-06
-5.14234e-06
-5.03747e-06
-1.77877e-08
-5.69206e-08
-1.00797e-07
-1.55854e-07
-2.23617e-07
-3.06118e-07
-4.07084e-07
-5.26007e-07
-6.68987e-07
-8.34836e-07
-1.01542e-06
-1.20973e-06
-1.41133e-06
-1.60818e-06
-1.78995e-06
-1.94411e-06
-2.06134e-06
-2.13063e-06
-2.14401e-06
-2.09929e-06
-7.28448e-09
-2.33781e-08
-4.31987e-08
-6.75932e-08
-9.72394e-08
-1.33323e-07
-1.78046e-07
-2.28021e-07
-2.86975e-07
-3.5982e-07
-4.37238e-07
-5.19739e-07
-6.08e-07
-6.92365e-07
-7.69614e-07
-8.35005e-07
-8.85319e-07
-9.15304e-07
-9.20894e-07
-8.98363e-07
-5.0822e-09
-1.32137e-08
-2.27005e-08
-3.64224e-08
-5.13302e-08
-7.1659e-08
-9.57147e-08
-1.21634e-07
-1.53482e-07
-1.90582e-07
-2.30393e-07
-2.75455e-07
-3.22211e-07
-3.66935e-07
-4.07931e-07
-4.41643e-07
-4.67901e-07
-4.84842e-07
-4.87891e-07
-4.74677e-07
)
;

boundaryField
{
    topWall
    {
        type            calculated;
        value           nonuniform List<scalar> 
20
(
-5.0822e-09
-1.32137e-08
-2.27005e-08
-3.64224e-08
-5.13302e-08
-7.1659e-08
-9.57147e-08
-1.21634e-07
-1.53482e-07
-1.90582e-07
-2.30393e-07
-2.75455e-07
-3.22211e-07
-3.66935e-07
-4.07931e-07
-4.41643e-07
-4.67901e-07
-4.84842e-07
-4.87891e-07
-4.74677e-07
)
;
    }
    bottomWall
    {
        type            calculated;
        value           nonuniform List<scalar> 
20
(
-1.03198
-3.34228
-6.44745
-11.0758
-18.2985
-29.77
-48.1049
-77.4935
-124.746
-201.129
-325.771
-532.329
-883.14
-1502.22
-2661.98
-5043.25
-10627
-26127.1
-77311.1
-269541
)
;
    }
    sideWallL
    {
        type            symmetry;
    }
    sideWallR
    {
        type            calculated;
        value           nonuniform List<scalar> 
45
(
-422122
-171278
-86570.6
-50096.6
-31155.5
-20088.3
-13175.1
-8697.48
-5742.83
-3777.34
-2468.06
-1598.66
-1025.02
-649.797
-406.909
-251.523
-153.381
-92.2307
-54.6676
-31.9305
-18.374
-10.4146
-5.8138
-3.19607
-1.73013
-0.92221
-0.484018
-0.250136
-0.127286
-0.0637817
-0.0314731
-0.0152947
-0.00732033
-0.00345101
-0.00160262
-0.000733198
-0.000330496
-0.000146798
-6.42581e-05
-2.77208e-05
-1.17888e-05
-4.94879e-06
-2.06114e-06
-8.79368e-07
-4.63274e-07
)
;
    }
    frontAndBack
    {
        type            empty;
    }
}


// ************************************************************************* //
