/*--------------------------------*- C++ -*----------------------------------*\
  =========                 |
  \\      /  F ield         | OpenFOAM: The Open Source CFD Toolbox
   \\    /   O peration     | Website:  https://openfoam.org
    \\  /    A nd           | Version:  7
     \\/     M anipulation  |
\*---------------------------------------------------------------------------*/
FoamFile
{
    version     2.0;
    format      ascii;
    class       volScalarField;
    location    "9";
    object      gradTy;
}
// * * * * * * * * * * * * * * * * * * * * * * * * * * * * * * * * * * * * * //

dimensions      [0 -1 0 1 0 0 0];

internalField   nonuniform List<scalar> 
900
(
-99550.7
-99554.7
-99563.6
-99579.5
-99606.3
-99650
-99720.8
-99834.6
-100017
-100311
-100782
-101542
-102779
-104818
-108252
-114223
-125110
-146366
-191940
-301650
-80514.7
-80518.3
-80526.2
-80540.2
-80563.7
-80601.9
-80663.3
-80761.3
-80916.8
-81163
-81551.7
-82164.4
-83129.2
-84647.3
-87028.1
-90717
-96207.7
-103330
-107631
-83887.8
-64424.9
-64427.7
-64433.9
-64444.9
-64463.1
-64492.2
-64538.3
-64610.5
-64722.3
-64893.9
-65154
-65542.2
-66108.6
-66905.1
-67949.8
-69114.5
-69803.1
-68099.7
-58790.6
-30295.4
-50954.6
-50956.5
-50960.6
-50967.8
-50979.4
-50997.6
-51025.5
-51067.2
-51128.5
-51215.9
-51335.4
-51488.4
-51660.8
-51798.3
-51751.3
-51159.4
-49223.5
-44327
-33656.6
-13853.8
-39801.8
-39802.7
-39804.6
-39807.9
-39812.8
-39819.8
-39829.5
-39841.6
-39854.8
-39864.8
-39860.5
-39817.4
-39684.1
-39357.2
-38638.2
-37162
-34300
-29085.8
-20348.3
-7502.08
-30681.6
-30681.5
-30681.4
-30681.1
-30680
-30677.3
-30671.2
-30658.5
-30632.9
-30583
-30487.9
-30310.7
-29986.8
-29406.3
-28388.7
-26651.9
-23793.4
-19323.9
-12847.9
-4495.09
-23324
-23323.2
-23321.5
-23318.3
-23312.5
-23302.3
-23284.6
-23254.2
-23202.1
-23113.6
-22964.5
-22715.5
-22304.9
-21638
-20575.9
-18929
-16467.3
-12971.6
-8353.91
-2847.7
-17474.6
-17473.4
-17470.5
-17465.3
-17456.3
-17441.4
-17416.6
-17375.9
-17309.7
-17202.7
-17031.6
-16761.3
-16339.9
-15695
-14730
-13327.6
-11366.7
-8761.68
-5528.11
-1858.07
-12895.9
-12894.4
-12890.9
-12884.6
-12874.1
-12856.8
-12829
-12784.7
-12714.5
-12604.9
-12435.6
-12178
-11792.5
-11227.4
-10420
-9301.82
-7813.63
-5929.61
-3690.4
-1230.03
-9369.81
-9368.16
-9364.48
-9357.94
-9347.11
-9329.67
-9302.07
-9258.91
-9192.24
-9090.59
-8937.86
-8712.17
-8385.09
-7921.78
-7283.17
-6431.36
-5339.47
-4005.91
-2469.61
-818.693
-6699.87
-6698.27
-6694.74
-6688.52
-6678.33
-6662.15
-6636.91
-6598.13
-6539.35
-6451.57
-6322.61
-6136.64
-5874.09
-5512.42
-5028.21
-4401.27
-3620.84
-2693.34
-1649.15
-544.668
-4713.15
-4711.72
-4708.56
-4703.03
-4694.06
-4679.98
-4658.32
-4625.52
-4576.61
-4504.85
-4401.44
-4255.37
-4053.64
-3782.12
-3427.17
-2978.49
-2432.79
-1797.8
-1095.26
-360.76
-3260.97
-3259.75
-3257.07
-3252.42
-3244.94
-3233.32
-3215.65
-3189.25
-3150.42
-3094.34
-3014.87
-2904.58
-2755.12
-2557.81
-2304.94
-1991.5
-1617.31
-1189.1
-721.641
-237.217
-2218.59
-2217.6
-2215.43
-2211.69
-2205.73
-2196.56
-2182.76
-2162.36
-2132.77
-2090.59
-2031.69
-1951.22
-1843.89
-1704.52
-1528.84
-1314.59
-1062.65
-778.144
-470.826
-154.528
-1483.97
-1483.2
-1481.52
-1478.64
-1474.07
-1467.1
-1456.72
-1441.54
-1419.76
-1389.1
-1346.83
-1289.84
-1214.89
-1118.92
-999.641
-856.107
-689.418
-503.203
-303.745
-99.5685
-975.745
-975.167
-973.911
-971.766
-968.391
-963.281
-955.731
-944.799
-929.27
-907.648
-878.174
-838.907
-787.879
-723.334
-644.053
-549.726
-441.309
-321.257
-193.546
-63.3821
-630.627
-630.207
-629.298
-627.754
-625.339
-621.708
-616.385
-608.745
-597.991
-583.162
-563.151
-536.767
-502.839
-460.37
-408.734
-347.884
-278.545
-202.328
-121.704
-39.8232
-400.596
-400.301
-399.664
-398.586
-396.908
-394.402
-390.756
-385.562
-378.313
-368.403
-355.151
-337.836
-315.775
-288.411
-255.429
-216.879
-173.27
-125.63
-75.4697
-24.6783
-250.108
-249.906
-249.472
-248.74
-247.607
-245.924
-243.493
-240.053
-235.288
-228.826
-220.252
-209.141
-195.098
-177.818
-157.146
-133.154
-106.182
-76.8689
-46.1271
-15.075
-153.473
-153.339
-153.05
-152.567
-151.821
-150.721
-149.139
-146.917
-143.859
-139.741
-134.317
-127.338
-118.58
-107.878
-95.1602
-80.488
-64.0819
-46.3305
-27.7761
-9.0734
-92.5603
-92.4734
-92.2871
-91.9754
-91.4971
-90.7945
-89.7904
-88.3879
-86.4701
-83.9034
-80.5444
-76.2505
-70.8964
-64.3932
-56.7096
-47.8919
-38.0775
-27.4988
-16.4731
-5.37899
-54.8684
-54.8135
-54.696
-54.4999
-54.2003
-53.7622
-53.1393
-52.2738
-51.0971
-49.5312
-47.4937
-44.9042
-41.6935
-37.8146
-33.255
-28.0464
-22.2723
-16.0691
-9.6196
-3.14004
-31.9703
-31.9364
-31.864
-31.7435
-31.5601
-31.2929
-30.9149
-30.3924
-29.6854
-28.7496
-27.5384
-26.0069
-24.1175
-21.846
-19.1876
-16.1632
-12.8222
-9.24322
-5.53012
-1.80462
-18.3115
-18.291
-18.2474
-18.175
-18.0652
-17.9058
-17.6813
-17.3723
-16.9563
-16.4081
-15.702
-14.8133
-13.7219
-12.4154
-10.8925
-9.16601
-7.26472
-5.2331
-3.12931
-1.02092
-10.3107
-10.2986
-10.2729
-10.2303
-10.1659
-10.0729
-9.94225
-9.76324
-9.52323
-9.20838
-8.80452
-8.2984
-7.67935
-6.9411
-6.08362
-5.11464
-4.05044
-2.91583
-1.74284
-0.568464
-5.70788
-5.7009
-5.68606
-5.66154
-5.62458
-5.57133
-5.49686
-5.39519
-5.25941
-5.08199
-4.85529
-4.57228
-4.22739
-3.81751
-3.34293
-2.80817
-2.22228
-1.59886
-0.955286
-0.311527
-3.10691
-3.10295
-3.09456
-3.08073
-3.05994
-3.03007
-2.98844
-2.9318
-2.85643
-2.75831
-2.63338
-2.47796
-2.28918
-2.06552
-1.8073
-1.51707
-1.19979
-0.862771
-0.515308
-0.168018
-1.663
-1.66081
-1.65616
-1.64851
-1.63704
-1.62061
-1.59778
-1.56682
-1.52576
-1.47248
-1.40487
-1.32102
-1.21947
-1.09951
-0.961365
-0.806448
-0.637422
-0.458163
-0.273562
-0.089183
-0.875419
-0.874226
-0.871699
-0.867551
-0.861343
-0.852476
-0.840191
-0.823582
-0.80162
-0.773207
-0.737258
-0.692804
-0.639119
-0.575858
-0.503179
-0.421844
-0.333257
-0.239439
-0.142926
-0.0465886
-0.453264
-0.452627
-0.45128
-0.449073
-0.445776
-0.441079
-0.434589
-0.425839
-0.414301
-0.399416
-0.380635
-0.357471
-0.329568
-0.296764
-0.259157
-0.217149
-0.171468
-0.123152
-0.0734933
-0.0239533
-0.230862
-0.230528
-0.229824
-0.228671
-0.226952
-0.224509
-0.221142
-0.216614
-0.210659
-0.202996
-0.193352
-0.181486
-0.167226
-0.150496
-0.131354
-0.110008
-0.0868296
-0.0623421
-0.0371956
-0.0121218
-0.115684
-0.115513
-0.115151
-0.11456
-0.11368
-0.112432
-0.110716
-0.108413
-0.105393
-0.101515
-0.0966467
-0.0906701
-0.0835023
-0.0751099
-0.0655242
-0.0548516
-0.043278
-0.0310635
-0.0185299
-0.00603819
-0.0570398
-0.0569533
-0.0567707
-0.0564727
-0.0560303
-0.0554039
-0.0545444
-0.0533939
-0.0518878
-0.0499589
-0.047542
-0.0445813
-0.0410374
-0.0368955
-0.0321723
-0.0269211
-0.0212334
-0.0152365
-0.00908713
-0.00296092
-0.0276772
-0.0276343
-0.0275438
-0.0273963
-0.0271776
-0.0268686
-0.0264455
-0.0258803
-0.025142
-0.0241983
-0.0230183
-0.0215756
-0.0198517
-0.0178403
-0.0155501
-0.0130071
-0.0102558
-0.00735741
-0.00438727
-0.00142943
-0.0132181
-0.0131972
-0.0131531
-0.0130813
-0.0129751
-0.0128253
-0.0126205
-0.0123474
-0.0119915
-0.0115374
-0.0109706
-0.0102789
-0.00945377
-0.00849249
-0.00739944
-0.00618726
-0.00487707
-0.00349798
-0.00208555
-0.000679454
-0.00621414
-0.00620411
-0.006183
-0.00614867
-0.00609794
-0.00602649
-0.00592901
-0.00579928
-0.00563046
-0.00541549
-0.00514765
-0.00482128
-0.00443258
-0.00398038
-0.00346686
-0.00289799
-0.00228371
-0.0016376
-0.00097623
-0.00031803
-0.00287622
-0.00287149
-0.00286155
-0.00284541
-0.00282157
-0.00278806
-0.00274242
-0.00268178
-0.002603
-0.00250286
-0.00237829
-0.00222673
-0.00204649
-0.00183708
-0.00159955
-0.00133669
-0.00105309
-0.000755008
-0.000450029
-0.0001466
-0.00131086
-0.00130867
-0.00130406
-0.00129659
-0.00128558
-0.00127012
-0.00124909
-0.0012212
-0.00118502
-0.00113911
-0.00108208
-0.0010128
-0.000930511
-0.000835027
-0.00072684
-0.000607232
-0.00047829
-0.000342845
-0.000204332
-6.65593e-05
-0.000588365
-0.000587363
-0.000585264
-0.000581865
-0.000576859
-0.000569839
-0.000560305
-0.00054768
-0.000531329
-0.000510605
-0.000484901
-0.000453716
-0.000416726
-0.000373852
-0.000325323
-0.000271721
-0.000213977
-0.000153359
-9.13899e-05
-2.97691e-05
-0.000260105
-0.000259656
-0.000258714
-0.000257191
-0.000254951
-0.000251814
-0.000247561
-0.000241935
-0.000234659
-0.000225449
-0.000214042
-0.000200218
-0.000183842
-0.000164882
-0.000143442
-0.00011978
-9.43081e-05
-6.75805e-05
-4.02693e-05
-1.31175e-05
-0.000113254
-0.000113056
-0.000112641
-0.00011197
-0.000110982
-0.000109602
-0.000107733
-0.000105265
-0.000102077
-9.80486e-05
-9.30644e-05
-8.70309e-05
-7.98923e-05
-7.16339e-05
-6.23038e-05
-5.20143e-05
-4.09449e-05
-2.93372e-05
-1.74797e-05
-5.69325e-06
-4.85243e-05
-4.84383e-05
-4.82589e-05
-4.79673e-05
-4.75407e-05
-4.69436e-05
-4.61367e-05
-4.50711e-05
-4.36957e-05
-4.1962e-05
-3.98214e-05
-3.72313e-05
-3.41685e-05
-3.06294e-05
-2.66343e-05
-2.22309e-05
-1.74958e-05
-1.25351e-05
-7.46829e-06
-2.43166e-06
-2.03293e-05
-2.02934e-05
-2.02173e-05
-2.00937e-05
-1.99139e-05
-1.96622e-05
-1.93223e-05
-1.88744e-05
-1.82942e-05
-1.75641e-05
-1.6665e-05
-1.55769e-05
-1.42925e-05
-1.28097e-05
-1.11375e-05
-9.29449e-06
-7.31413e-06
-5.23907e-06
-3.12166e-06
-1.01746e-06
-7.99531e-06
-7.98227e-06
-7.95127e-06
-7.90366e-06
-7.83217e-06
-7.73206e-06
-7.59704e-06
-7.42069e-06
-7.193e-06
-6.90518e-06
-6.54892e-06
-6.12049e-06
-5.61447e-06
-5.03104e-06
-4.37323e-06
-3.64885e-06
-2.8711e-06
-2.05541e-06
-1.22515e-06
-3.99461e-07
-2.09234e-06
-2.09014e-06
-2.08235e-06
-2.06998e-06
-2.05101e-06
-2.02424e-06
-1.98917e-06
-1.94174e-06
-1.88329e-06
-1.80808e-06
-1.71338e-06
-1.60157e-06
-1.46909e-06
-1.31595e-06
-1.14349e-06
-9.54437e-07
-7.49963e-07
-5.36849e-07
-3.1984e-07
-1.04016e-07
)
;

boundaryField
{
    topWall
    {
        type            calculated;
        value           uniform 0;
    }
    bottomWall
    {
        type            calculated;
        value           nonuniform List<scalar> 
20
(
-109848
-109852
-109861
-109878
-109906
-109951
-110025
-110143
-110335
-110642
-111139
-111945
-113268
-115478
-119277
-126126
-139450
-168634
-243959
-477878
)
;
    }
    sideWallL
    {
        type            symmetry;
    }
    sideWallR
    {
        type            calculated;
        value           nonuniform List<scalar> 
45
(
-301650
-83887.8
-30295.4
-13853.8
-7502.08
-4495.09
-2847.7
-1858.07
-1230.03
-818.693
-544.668
-360.76
-237.217
-154.528
-99.5685
-63.3821
-39.8232
-24.6783
-15.075
-9.0734
-5.37899
-3.14004
-1.80462
-1.02092
-0.568464
-0.311527
-0.168018
-0.089183
-0.0465886
-0.0239533
-0.0121218
-0.00603819
-0.00296092
-0.00142943
-0.000679454
-0.00031803
-0.0001466
-6.65593e-05
-2.97691e-05
-1.31175e-05
-5.69325e-06
-2.43166e-06
-1.01746e-06
-3.99461e-07
-1.04016e-07
)
;
    }
    frontAndBack
    {
        type            empty;
    }
}


// ************************************************************************* //
