/*--------------------------------*- C++ -*----------------------------------*\
  =========                 |
  \\      /  F ield         | OpenFOAM: The Open Source CFD Toolbox
   \\    /   O peration     | Website:  https://openfoam.org
    \\  /    A nd           | Version:  7
     \\/     M anipulation  |
\*---------------------------------------------------------------------------*/
FoamFile
{
    version     2.0;
    format      ascii;
    class       volScalarField;
    location    "9";
    object      rhoc;
}
// * * * * * * * * * * * * * * * * * * * * * * * * * * * * * * * * * * * * * //

dimensions      [1 -3 0 0 0 0 0];

internalField   nonuniform List<scalar> 
900
(
1.55711e-21
1.557e-21
1.55675e-21
1.55629e-21
1.5555e-21
1.55419e-21
1.55201e-21
1.54843e-21
1.54255e-21
1.53293e-21
1.5172e-21
1.49152e-21
1.44952e-21
1.38077e-21
1.2682e-21
1.08498e-21
7.96463e-22
3.98849e-22
6.31001e-23
1.34354e-25
1.53401e-23
1.53367e-23
1.5329e-23
1.5315e-23
1.52911e-23
1.52512e-23
1.51856e-23
1.50781e-23
1.49033e-23
1.46213e-23
1.41704e-23
1.34591e-23
1.23596e-23
1.07166e-23
8.40464e-24
5.49415e-24
2.54057e-24
5.87087e-25
3.19618e-26
1.06715e-28
2.80049e-25
2.79948e-25
2.79721e-25
2.7931e-25
2.78609e-25
2.77444e-25
2.75533e-25
2.72429e-25
2.67438e-25
2.59512e-25
2.47139e-25
2.28302e-25
2.00705e-25
1.62668e-25
1.1523e-25
6.51472e-26
2.51858e-26
5.16816e-27
3.98736e-28
1.10493e-29
9.84166e-27
9.83719e-27
9.82711e-27
9.80886e-27
9.77786e-27
9.72658e-27
9.64295e-27
9.50815e-27
9.29373e-27
8.95834e-27
8.44572e-27
7.68779e-27
6.62109e-27
5.22788e-27
3.60502e-27
2.01867e-27
8.2862e-28
2.21122e-28
3.62056e-29
4.64679e-30
6.72991e-28
6.72663e-28
6.71925e-28
6.7059e-28
6.68331e-28
6.64608e-28
6.58572e-28
6.48914e-28
6.33697e-28
6.10186e-28
5.74806e-28
5.23492e-28
4.5288e-28
3.62805e-28
2.59777e-28
1.58839e-28
7.89177e-29
3.08918e-29
9.92493e-30
3.11296e-30
8.83311e-29
8.82911e-29
8.82012e-29
8.80389e-29
8.77652e-29
8.73161e-29
8.65916e-29
8.544e-29
8.36393e-29
8.08816e-29
7.67717e-29
7.08671e-29
6.27985e-29
5.25047e-29
4.05405e-29
2.82521e-29
1.74661e-29
9.60624e-30
4.89937e-30
2.52367e-30
2.11367e-29
2.11289e-29
2.11113e-29
2.10797e-29
2.10267e-29
2.09399e-29
2.08007e-29
2.05807e-29
2.02388e-29
1.97185e-29
1.89472e-29
1.78427e-29
1.633e-29
1.43762e-29
1.20361e-29
9.48675e-30
7.00849e-30
4.88918e-30
3.30013e-30
2.24246e-30
8.28834e-30
8.28607e-30
8.28098e-30
8.27184e-30
8.25654e-30
8.23165e-30
8.19191e-30
8.12945e-30
8.03297e-30
7.88694e-30
7.67139e-30
7.36304e-30
6.93896e-30
6.38376e-30
5.69989e-30
4.91732e-30
4.09528e-30
3.30973e-30
2.62909e-30
2.09239e-30
4.63042e-30
4.62952e-30
4.62753e-30
4.62395e-30
4.61799e-30
4.60835e-30
4.59304e-30
4.56914e-30
4.53244e-30
4.47724e-30
4.39617e-30
4.28047e-30
4.12106e-30
3.91054e-30
3.64629e-30
3.33381e-30
2.98865e-30
2.63495e-30
2.30007e-30
2.00725e-30
3.24975e-30
3.24932e-30
3.24835e-30
3.24663e-30
3.24378e-30
3.23918e-30
3.23193e-30
3.22069e-30
3.20357e-30
3.178e-30
3.14068e-30
3.08768e-30
3.0148e-30
2.91828e-30
2.79597e-30
2.64866e-30
2.48111e-30
2.30221e-30
2.1236e-30
1.95729e-30
2.62221e-30
2.62197e-30
2.62143e-30
2.62049e-30
2.61892e-30
2.61642e-30
2.6125e-30
2.60647e-30
2.59737e-30
2.58388e-30
2.56435e-30
2.53682e-30
2.49913e-30
2.44933e-30
2.38607e-30
2.30925e-30
2.22056e-30
2.12367e-30
2.02392e-30
1.92744e-30
2.30154e-30
2.3014e-30
2.30108e-30
2.30051e-30
2.29958e-30
2.2981e-30
2.29581e-30
2.29231e-30
2.28707e-30
2.27938e-30
2.26835e-30
2.25292e-30
2.23195e-30
2.20439e-30
2.16945e-30
2.12697e-30
2.07761e-30
2.02308e-30
1.96597e-30
1.90947e-30
2.12558e-30
2.12549e-30
2.12529e-30
2.12493e-30
2.12435e-30
2.12344e-30
2.12204e-30
2.11992e-30
2.11677e-30
2.11219e-30
2.10568e-30
2.09666e-30
2.08451e-30
2.06865e-30
2.04864e-30
2.02438e-30
1.99617e-30
1.96486e-30
1.93179e-30
1.89864e-30
2.02494e-30
2.02488e-30
2.02475e-30
2.02453e-30
2.02416e-30
2.02359e-30
2.02271e-30
2.02139e-30
2.01946e-30
2.01668e-30
2.01276e-30
2.00738e-30
2.00019e-30
1.99089e-30
1.97923e-30
1.96516e-30
1.94884e-30
1.93073e-30
1.91152e-30
1.89213e-30
1.96611e-30
1.96607e-30
1.96599e-30
1.96584e-30
1.96561e-30
1.96524e-30
1.96469e-30
1.96388e-30
1.96268e-30
1.96098e-30
1.9586e-30
1.95537e-30
1.9511e-30
1.9456e-30
1.93878e-30
1.93058e-30
1.92112e-30
1.91063e-30
1.89951e-30
1.88825e-30
1.93141e-30
1.93138e-30
1.93133e-30
1.93123e-30
1.93109e-30
1.93086e-30
1.93051e-30
1.93e-30
1.92927e-30
1.92823e-30
1.9268e-30
1.92486e-30
1.92232e-30
1.91909e-30
1.9151e-30
1.91034e-30
1.90487e-30
1.89883e-30
1.89243e-30
1.88594e-30
1.91093e-30
1.91091e-30
1.91088e-30
1.91082e-30
1.91072e-30
1.91058e-30
1.91037e-30
1.91006e-30
1.90961e-30
1.90898e-30
1.90812e-30
1.90697e-30
1.90548e-30
1.90359e-30
1.90127e-30
1.89853e-30
1.89539e-30
1.89194e-30
1.88829e-30
1.88459e-30
1.8989e-30
1.89889e-30
1.89887e-30
1.89884e-30
1.89878e-30
1.89869e-30
1.89856e-30
1.89837e-30
1.8981e-30
1.89773e-30
1.89722e-30
1.89654e-30
1.89567e-30
1.89458e-30
1.89325e-30
1.89169e-30
1.88991e-30
1.88795e-30
1.8859e-30
1.88381e-30
1.89191e-30
1.8919e-30
1.89189e-30
1.89187e-30
1.89183e-30
1.89178e-30
1.8917e-30
1.89159e-30
1.89143e-30
1.89121e-30
1.89091e-30
1.89052e-30
1.89002e-30
1.8894e-30
1.88864e-30
1.88776e-30
1.88676e-30
1.88567e-30
1.88452e-30
1.88336e-30
1.88788e-30
1.88788e-30
1.88787e-30
1.88786e-30
1.88784e-30
1.8878e-30
1.88776e-30
1.88769e-30
1.8876e-30
1.88747e-30
1.8873e-30
1.88708e-30
1.8868e-30
1.88645e-30
1.88602e-30
1.88553e-30
1.88498e-30
1.88438e-30
1.88375e-30
1.88311e-30
1.8856e-30
1.88559e-30
1.88559e-30
1.88558e-30
1.88557e-30
1.88555e-30
1.88552e-30
1.88549e-30
1.88543e-30
1.88536e-30
1.88527e-30
1.88514e-30
1.88498e-30
1.88479e-30
1.88456e-30
1.88429e-30
1.88398e-30
1.88366e-30
1.88331e-30
1.88297e-30
1.88432e-30
1.88432e-30
1.88431e-30
1.88431e-30
1.8843e-30
1.88429e-30
1.88428e-30
1.88425e-30
1.88422e-30
1.88418e-30
1.88413e-30
1.88406e-30
1.88397e-30
1.88387e-30
1.88374e-30
1.8836e-30
1.88343e-30
1.88326e-30
1.88307e-30
1.88289e-30
1.88361e-30
1.88361e-30
1.88361e-30
1.88361e-30
1.8836e-30
1.8836e-30
1.88359e-30
1.88358e-30
1.88356e-30
1.88354e-30
1.88351e-30
1.88347e-30
1.88342e-30
1.88337e-30
1.8833e-30
1.88322e-30
1.88313e-30
1.88304e-30
1.88294e-30
1.88285e-30
1.88323e-30
1.88323e-30
1.88323e-30
1.88322e-30
1.88322e-30
1.88322e-30
1.88321e-30
1.88321e-30
1.8832e-30
1.88319e-30
1.88317e-30
1.88315e-30
1.88313e-30
1.8831e-30
1.88306e-30
1.88302e-30
1.88297e-30
1.88293e-30
1.88288e-30
1.88282e-30
1.88302e-30
1.88302e-30
1.88302e-30
1.88302e-30
1.88302e-30
1.88302e-30
1.88301e-30
1.88301e-30
1.88301e-30
1.883e-30
1.88299e-30
1.88298e-30
1.88297e-30
1.88295e-30
1.88293e-30
1.88291e-30
1.88289e-30
1.88286e-30
1.88284e-30
1.88281e-30
1.88291e-30
1.88291e-30
1.88291e-30
1.88291e-30
1.88291e-30
1.88291e-30
1.88291e-30
1.88291e-30
1.8829e-30
1.8829e-30
1.8829e-30
1.88289e-30
1.88289e-30
1.88288e-30
1.88287e-30
1.88286e-30
1.88285e-30
1.88283e-30
1.88282e-30
1.88281e-30
1.88286e-30
1.88286e-30
1.88286e-30
1.88286e-30
1.88286e-30
1.88286e-30
1.88285e-30
1.88285e-30
1.88285e-30
1.88285e-30
1.88285e-30
1.88285e-30
1.88284e-30
1.88284e-30
1.88283e-30
1.88283e-30
1.88282e-30
1.88282e-30
1.88281e-30
1.8828e-30
1.88283e-30
1.88283e-30
1.88283e-30
1.88283e-30
1.88283e-30
1.88283e-30
1.88283e-30
1.88283e-30
1.88283e-30
1.88282e-30
1.88282e-30
1.88282e-30
1.88282e-30
1.88282e-30
1.88282e-30
1.88281e-30
1.88281e-30
1.88281e-30
1.8828e-30
1.8828e-30
1.88281e-30
1.88281e-30
1.88281e-30
1.88281e-30
1.88281e-30
1.88281e-30
1.88281e-30
1.88281e-30
1.88281e-30
1.88281e-30
1.88281e-30
1.88281e-30
1.88281e-30
1.88281e-30
1.88281e-30
1.88281e-30
1.8828e-30
1.8828e-30
1.8828e-30
1.8828e-30
1.88281e-30
1.88281e-30
1.88281e-30
1.88281e-30
1.88281e-30
1.88281e-30
1.88281e-30
1.88281e-30
1.88281e-30
1.88281e-30
1.88281e-30
1.8828e-30
1.8828e-30
1.8828e-30
1.8828e-30
1.8828e-30
1.8828e-30
1.8828e-30
1.8828e-30
1.8828e-30
1.8828e-30
1.8828e-30
1.8828e-30
1.8828e-30
1.8828e-30
1.8828e-30
1.8828e-30
1.8828e-30
1.8828e-30
1.8828e-30
1.8828e-30
1.8828e-30
1.8828e-30
1.8828e-30
1.8828e-30
1.8828e-30
1.8828e-30
1.8828e-30
1.8828e-30
1.8828e-30
1.8828e-30
1.8828e-30
1.8828e-30
1.8828e-30
1.8828e-30
1.8828e-30
1.8828e-30
1.8828e-30
1.8828e-30
1.8828e-30
1.8828e-30
1.8828e-30
1.8828e-30
1.8828e-30
1.8828e-30
1.8828e-30
1.8828e-30
1.8828e-30
1.8828e-30
1.8828e-30
1.8828e-30
1.8828e-30
1.8828e-30
1.8828e-30
1.8828e-30
1.8828e-30
1.8828e-30
1.8828e-30
1.8828e-30
1.8828e-30
1.8828e-30
1.8828e-30
1.8828e-30
1.8828e-30
1.8828e-30
1.8828e-30
1.8828e-30
1.8828e-30
1.8828e-30
1.8828e-30
1.8828e-30
1.8828e-30
1.8828e-30
1.8828e-30
1.8828e-30
1.8828e-30
1.8828e-30
1.8828e-30
1.8828e-30
1.8828e-30
1.8828e-30
1.8828e-30
1.8828e-30
1.8828e-30
1.8828e-30
1.8828e-30
1.8828e-30
1.8828e-30
1.8828e-30
1.8828e-30
1.8828e-30
1.8828e-30
1.8828e-30
1.8828e-30
1.8828e-30
1.8828e-30
1.8828e-30
1.8828e-30
1.8828e-30
1.8828e-30
1.8828e-30
1.8828e-30
1.8828e-30
1.8828e-30
1.8828e-30
1.8828e-30
1.8828e-30
1.8828e-30
1.8828e-30
1.8828e-30
1.8828e-30
1.8828e-30
1.8828e-30
1.8828e-30
1.8828e-30
1.8828e-30
1.8828e-30
1.8828e-30
1.8828e-30
1.8828e-30
1.8828e-30
1.8828e-30
1.8828e-30
1.8828e-30
1.8828e-30
1.8828e-30
1.8828e-30
1.8828e-30
1.8828e-30
1.8828e-30
1.8828e-30
1.8828e-30
1.8828e-30
1.8828e-30
1.8828e-30
1.8828e-30
1.8828e-30
1.8828e-30
1.8828e-30
1.8828e-30
1.8828e-30
1.8828e-30
1.8828e-30
1.8828e-30
1.8828e-30
1.8828e-30
1.8828e-30
1.8828e-30
1.8828e-30
1.8828e-30
1.8828e-30
1.8828e-30
1.8828e-30
1.8828e-30
1.8828e-30
1.8828e-30
1.8828e-30
1.8828e-30
1.8828e-30
1.8828e-30
1.8828e-30
1.8828e-30
1.8828e-30
1.8828e-30
1.8828e-30
1.8828e-30
1.8828e-30
1.8828e-30
1.8828e-30
1.8828e-30
1.8828e-30
1.8828e-30
1.8828e-30
1.8828e-30
1.8828e-30
1.8828e-30
1.8828e-30
1.8828e-30
1.8828e-30
1.8828e-30
1.8828e-30
1.8828e-30
1.8828e-30
1.8828e-30
1.8828e-30
1.8828e-30
1.8828e-30
1.8828e-30
1.8828e-30
1.8828e-30
1.8828e-30
1.8828e-30
1.8828e-30
1.8828e-30
1.8828e-30
1.8828e-30
1.8828e-30
1.8828e-30
1.8828e-30
1.8828e-30
1.8828e-30
1.8828e-30
1.8828e-30
1.8828e-30
1.8828e-30
1.8828e-30
1.8828e-30
1.8828e-30
1.8828e-30
1.8828e-30
1.8828e-30
1.8828e-30
1.8828e-30
1.8828e-30
1.8828e-30
1.8828e-30
1.8828e-30
1.8828e-30
1.8828e-30
1.8828e-30
1.8828e-30
1.8828e-30
1.8828e-30
1.8828e-30
1.8828e-30
1.8828e-30
1.8828e-30
1.8828e-30
1.8828e-30
1.8828e-30
1.8828e-30
1.8828e-30
1.8828e-30
1.8828e-30
1.8828e-30
1.8828e-30
1.8828e-30
1.8828e-30
1.8828e-30
1.8828e-30
1.8828e-30
1.8828e-30
1.8828e-30
1.8828e-30
1.8828e-30
1.8828e-30
1.8828e-30
1.8828e-30
1.8828e-30
1.8828e-30
1.8828e-30
1.8828e-30
1.8828e-30
1.8828e-30
1.8828e-30
1.8828e-30
1.8828e-30
1.8828e-30
1.8828e-30
1.8828e-30
1.8828e-30
1.8828e-30
1.8828e-30
1.8828e-30
1.8828e-30
1.8828e-30
1.8828e-30
1.8828e-30
1.8828e-30
1.8828e-30
1.8828e-30
1.8828e-30
1.8828e-30
1.8828e-30
1.8828e-30
1.8828e-30
1.8828e-30
1.8828e-30
1.8828e-30
1.8828e-30
1.8828e-30
1.8828e-30
1.8828e-30
1.8828e-30
1.8828e-30
1.8828e-30
1.8828e-30
1.8828e-30
1.8828e-30
1.8828e-30
1.8828e-30
1.8828e-30
1.8828e-30
1.8828e-30
1.8828e-30
1.8828e-30
1.8828e-30
1.8828e-30
1.8828e-30
1.8828e-30
1.8828e-30
1.8828e-30
1.8828e-30
1.8828e-30
1.8828e-30
1.8828e-30
1.8828e-30
1.8828e-30
1.8828e-30
1.8828e-30
)
;

boundaryField
{
    topWall
    {
        type            zeroGradient;
    }
    bottomWall
    {
        type            zeroGradient;
    }
    sideWallL
    {
        type            symmetry;
    }
    sideWallR
    {
        type            zeroGradient;
    }
    frontAndBack
    {
        type            empty;
    }
}


// ************************************************************************* //
