/*--------------------------------*- C++ -*----------------------------------*\
  =========                 |
  \\      /  F ield         | OpenFOAM: The Open Source CFD Toolbox
   \\    /   O peration     | Website:  https://openfoam.org
    \\  /    A nd           | Version:  7
     \\/     M anipulation  |
\*---------------------------------------------------------------------------*/
FoamFile
{
    version     2.0;
    format      ascii;
    class       volScalarField;
    location    "9";
    object      rhog;
}
// * * * * * * * * * * * * * * * * * * * * * * * * * * * * * * * * * * * * * //

dimensions      [1 -3 0 0 0 0 0];

internalField   nonuniform List<scalar> 
900
(
6.66032e-11
6.66002e-11
6.65935e-11
6.65813e-11
6.65605e-11
6.65257e-11
6.64684e-11
6.63742e-11
6.622e-11
6.59679e-11
6.55559e-11
6.4881e-11
6.37708e-11
6.19302e-11
5.88426e-11
5.35835e-11
4.45262e-11
2.94382e-11
9.76391e-12
2.40843e-13
4.3012e-12
4.3006e-12
4.29924e-12
4.29679e-12
4.29261e-12
4.28565e-12
4.27421e-12
4.25549e-12
4.22506e-12
4.17582e-12
4.09659e-12
3.96992e-12
3.76941e-12
3.45697e-12
2.98411e-12
2.30813e-12
1.44894e-12
5.98178e-13
1.02525e-13
3.07622e-15
3.9524e-13
3.9515e-13
3.94947e-13
3.9458e-13
3.93956e-13
3.92922e-13
3.91227e-13
3.88476e-13
3.84041e-13
3.76958e-13
3.65771e-13
3.4837e-13
3.21913e-13
2.83093e-13
2.29365e-13
1.62002e-13
9.07472e-14
3.44636e-14
7.10753e-15
7.42489e-16
5.2934e-14
5.29186e-14
5.28838e-14
5.28209e-14
5.27143e-14
5.25384e-14
5.22519e-14
5.17899e-14
5.10528e-14
4.98913e-14
4.80902e-14
4.53585e-14
4.13449e-14
3.5721e-14
2.83901e-14
1.98404e-14
1.14322e-14
5.02194e-15
1.60371e-15
4.28095e-16
1.03956e-14
1.03923e-14
1.03848e-14
1.03713e-14
1.03486e-14
1.03112e-14
1.02506e-14
1.01537e-14
1.00006e-14
9.76234e-15
9.39874e-15
8.85822e-15
8.0834e-15
7.02848e-15
5.69417e-15
4.17452e-15
2.67975e-15
1.4716e-15
7.05791e-16
3.31314e-16
2.9673e-15
2.9664e-15
2.96436e-15
2.96069e-15
2.95452e-15
2.94443e-15
2.92818e-15
2.90236e-15
2.86194e-15
2.79971e-15
2.70595e-15
2.56857e-15
2.37466e-15
2.1144e-15
1.78799e-15
1.41409e-15
1.03328e-15
6.97887e-16
4.47616e-16
2.89549e-16
1.19854e-15
1.19823e-15
1.19753e-15
1.19629e-15
1.19419e-15
1.19079e-15
1.18534e-15
1.17675e-15
1.1634e-15
1.14303e-15
1.11264e-15
1.06857e-15
1.00692e-15
9.24597e-16
8.2105e-16
7.00287e-16
5.71931e-16
4.49572e-16
3.4605e-16
2.6834e-16
6.5009e-16
6.49961e-16
6.49674e-16
6.49161e-16
6.48304e-16
6.46915e-16
6.44704e-16
6.4124e-16
6.35898e-16
6.27815e-16
6.15857e-16
5.98646e-16
5.74705e-16
5.4278e-16
5.0237e-16
4.5435e-16
4.014e-16
3.47774e-16
2.98244e-16
2.56605e-16
4.40288e-16
4.40227e-16
4.40088e-16
4.39842e-16
4.39433e-16
4.38773e-16
4.37728e-16
4.36103e-16
4.33615e-16
4.2988e-16
4.24396e-16
4.16557e-16
4.05707e-16
3.91255e-16
3.7287e-16
3.50715e-16
3.25632e-16
2.99152e-16
2.73238e-16
2.49797e-16
3.46404e-16
3.46371e-16
3.46296e-16
3.46164e-16
3.45945e-16
3.45593e-16
3.4504e-16
3.44186e-16
3.42889e-16
3.40957e-16
3.38142e-16
3.34148e-16
3.28651e-16
3.21348e-16
3.12041e-16
3.00735e-16
2.87723e-16
2.73623e-16
2.59309e-16
2.45742e-16
2.99461e-16
2.99442e-16
2.99398e-16
2.99321e-16
2.99193e-16
2.98991e-16
2.98674e-16
2.98188e-16
2.97457e-16
2.96376e-16
2.94815e-16
2.92618e-16
2.89614e-16
2.85641e-16
2.80587e-16
2.74429e-16
2.67282e-16
2.5942e-16
2.5126e-16
2.43296e-16
2.74164e-16
2.74152e-16
2.74125e-16
2.74077e-16
2.73999e-16
2.73876e-16
2.73685e-16
2.73395e-16
2.72961e-16
2.72326e-16
2.71416e-16
2.70147e-16
2.68424e-16
2.66162e-16
2.63295e-16
2.59805e-16
2.55744e-16
2.51244e-16
2.46513e-16
2.41812e-16
2.5986e-16
2.59853e-16
2.59835e-16
2.59805e-16
2.59756e-16
2.59679e-16
2.59561e-16
2.59382e-16
2.59117e-16
2.58732e-16
2.58187e-16
2.57433e-16
2.56418e-16
2.55095e-16
2.53429e-16
2.51408e-16
2.49058e-16
2.46448e-16
2.43686e-16
2.40913e-16
2.51538e-16
2.51533e-16
2.51522e-16
2.51502e-16
2.51471e-16
2.51422e-16
2.51347e-16
2.51236e-16
2.51072e-16
2.50836e-16
2.50505e-16
2.50051e-16
2.49445e-16
2.48662e-16
2.47683e-16
2.46501e-16
2.45132e-16
2.43611e-16
2.41999e-16
2.4037e-16
2.46622e-16
2.46619e-16
2.46612e-16
2.466e-16
2.4658e-16
2.46548e-16
2.46501e-16
2.46431e-16
2.4633e-16
2.46185e-16
2.45983e-16
2.45709e-16
2.45347e-16
2.44882e-16
2.44306e-16
2.43614e-16
2.42816e-16
2.41932e-16
2.40994e-16
2.40045e-16
2.43705e-16
2.43702e-16
2.43698e-16
2.4369e-16
2.43677e-16
2.43658e-16
2.43628e-16
2.43584e-16
2.43522e-16
2.43433e-16
2.43311e-16
2.43146e-16
2.4293e-16
2.42656e-16
2.42318e-16
2.41915e-16
2.41452e-16
2.40941e-16
2.404e-16
2.39851e-16
2.41975e-16
2.41974e-16
2.41971e-16
2.41966e-16
2.41958e-16
2.41946e-16
2.41927e-16
2.419e-16
2.41862e-16
2.41809e-16
2.41735e-16
2.41637e-16
2.4151e-16
2.41349e-16
2.41152e-16
2.40919e-16
2.40653e-16
2.4036e-16
2.40051e-16
2.39738e-16
2.40957e-16
2.40956e-16
2.40954e-16
2.40951e-16
2.40946e-16
2.40938e-16
2.40927e-16
2.40911e-16
2.40888e-16
2.40856e-16
2.40812e-16
2.40755e-16
2.4068e-16
2.40587e-16
2.40474e-16
2.40341e-16
2.40189e-16
2.40023e-16
2.39848e-16
2.39671e-16
2.40362e-16
2.40362e-16
2.40361e-16
2.40359e-16
2.40356e-16
2.40351e-16
2.40345e-16
2.40335e-16
2.40321e-16
2.40302e-16
2.40277e-16
2.40243e-16
2.40201e-16
2.40147e-16
2.40083e-16
2.40008e-16
2.39923e-16
2.3983e-16
2.39732e-16
2.39633e-16
2.4002e-16
2.40019e-16
2.40019e-16
2.40018e-16
2.40016e-16
2.40013e-16
2.40009e-16
2.40003e-16
2.39996e-16
2.39985e-16
2.3997e-16
2.39951e-16
2.39927e-16
2.39897e-16
2.39861e-16
2.39819e-16
2.39771e-16
2.3972e-16
2.39666e-16
2.39612e-16
2.39825e-16
2.39825e-16
2.39824e-16
2.39824e-16
2.39823e-16
2.39821e-16
2.39819e-16
2.39815e-16
2.39811e-16
2.39805e-16
2.39796e-16
2.39786e-16
2.39772e-16
2.39755e-16
2.39736e-16
2.39713e-16
2.39687e-16
2.39659e-16
2.39629e-16
2.396e-16
2.39716e-16
2.39715e-16
2.39715e-16
2.39715e-16
2.39714e-16
2.39713e-16
2.39712e-16
2.3971e-16
2.39708e-16
2.39704e-16
2.397e-16
2.39694e-16
2.39686e-16
2.39677e-16
2.39666e-16
2.39654e-16
2.3964e-16
2.39625e-16
2.39609e-16
2.39593e-16
2.39655e-16
2.39655e-16
2.39655e-16
2.39655e-16
2.39654e-16
2.39654e-16
2.39653e-16
2.39652e-16
2.39651e-16
2.39649e-16
2.39646e-16
2.39643e-16
2.39639e-16
2.39634e-16
2.39628e-16
2.39622e-16
2.39614e-16
2.39606e-16
2.39598e-16
2.3959e-16
2.39622e-16
2.39622e-16
2.39622e-16
2.39622e-16
2.39622e-16
2.39621e-16
2.39621e-16
2.39621e-16
2.3962e-16
2.39619e-16
2.39617e-16
2.39616e-16
2.39614e-16
2.39611e-16
2.39608e-16
2.39604e-16
2.396e-16
2.39596e-16
2.39592e-16
2.39588e-16
2.39605e-16
2.39605e-16
2.39604e-16
2.39604e-16
2.39604e-16
2.39604e-16
2.39604e-16
2.39604e-16
2.39603e-16
2.39603e-16
2.39602e-16
2.39601e-16
2.396e-16
2.39599e-16
2.39597e-16
2.39595e-16
2.39593e-16
2.39591e-16
2.39589e-16
2.39587e-16
2.39595e-16
2.39595e-16
2.39595e-16
2.39595e-16
2.39595e-16
2.39595e-16
2.39595e-16
2.39595e-16
2.39595e-16
2.39594e-16
2.39594e-16
2.39593e-16
2.39593e-16
2.39592e-16
2.39591e-16
2.3959e-16
2.39589e-16
2.39588e-16
2.39587e-16
2.39586e-16
2.3959e-16
2.3959e-16
2.3959e-16
2.3959e-16
2.3959e-16
2.3959e-16
2.3959e-16
2.3959e-16
2.3959e-16
2.3959e-16
2.3959e-16
2.39589e-16
2.39589e-16
2.39589e-16
2.39588e-16
2.39588e-16
2.39587e-16
2.39587e-16
2.39586e-16
2.39586e-16
2.39588e-16
2.39588e-16
2.39588e-16
2.39588e-16
2.39588e-16
2.39588e-16
2.39588e-16
2.39588e-16
2.39588e-16
2.39588e-16
2.39588e-16
2.39587e-16
2.39587e-16
2.39587e-16
2.39587e-16
2.39587e-16
2.39586e-16
2.39586e-16
2.39586e-16
2.39586e-16
2.39587e-16
2.39587e-16
2.39587e-16
2.39587e-16
2.39587e-16
2.39587e-16
2.39587e-16
2.39587e-16
2.39587e-16
2.39587e-16
2.39586e-16
2.39586e-16
2.39586e-16
2.39586e-16
2.39586e-16
2.39586e-16
2.39586e-16
2.39586e-16
2.39586e-16
2.39586e-16
2.39586e-16
2.39586e-16
2.39586e-16
2.39586e-16
2.39586e-16
2.39586e-16
2.39586e-16
2.39586e-16
2.39586e-16
2.39586e-16
2.39586e-16
2.39586e-16
2.39586e-16
2.39586e-16
2.39586e-16
2.39586e-16
2.39586e-16
2.39586e-16
2.39586e-16
2.39585e-16
2.39586e-16
2.39586e-16
2.39586e-16
2.39586e-16
2.39586e-16
2.39586e-16
2.39586e-16
2.39586e-16
2.39586e-16
2.39586e-16
2.39586e-16
2.39586e-16
2.39586e-16
2.39586e-16
2.39586e-16
2.39586e-16
2.39586e-16
2.39586e-16
2.39586e-16
2.39585e-16
2.39586e-16
2.39586e-16
2.39586e-16
2.39586e-16
2.39586e-16
2.39586e-16
2.39586e-16
2.39586e-16
2.39586e-16
2.39586e-16
2.39586e-16
2.39586e-16
2.39586e-16
2.39586e-16
2.39586e-16
2.39586e-16
2.39586e-16
2.39585e-16
2.39585e-16
2.39585e-16
2.39586e-16
2.39586e-16
2.39586e-16
2.39586e-16
2.39586e-16
2.39586e-16
2.39586e-16
2.39586e-16
2.39586e-16
2.39586e-16
2.39586e-16
2.39586e-16
2.39586e-16
2.39585e-16
2.39585e-16
2.39585e-16
2.39585e-16
2.39585e-16
2.39585e-16
2.39585e-16
2.39585e-16
2.39585e-16
2.39585e-16
2.39585e-16
2.39585e-16
2.39585e-16
2.39585e-16
2.39585e-16
2.39585e-16
2.39585e-16
2.39585e-16
2.39585e-16
2.39585e-16
2.39585e-16
2.39585e-16
2.39585e-16
2.39585e-16
2.39585e-16
2.39585e-16
2.39585e-16
2.39585e-16
2.39585e-16
2.39585e-16
2.39585e-16
2.39585e-16
2.39585e-16
2.39585e-16
2.39585e-16
2.39585e-16
2.39585e-16
2.39585e-16
2.39585e-16
2.39585e-16
2.39585e-16
2.39585e-16
2.39585e-16
2.39585e-16
2.39585e-16
2.39585e-16
2.39585e-16
2.39585e-16
2.39585e-16
2.39585e-16
2.39585e-16
2.39585e-16
2.39585e-16
2.39585e-16
2.39585e-16
2.39585e-16
2.39585e-16
2.39585e-16
2.39585e-16
2.39585e-16
2.39585e-16
2.39585e-16
2.39585e-16
2.39585e-16
2.39585e-16
2.39585e-16
2.39585e-16
2.39585e-16
2.39585e-16
2.39585e-16
2.39585e-16
2.39585e-16
2.39585e-16
2.39585e-16
2.39585e-16
2.39585e-16
2.39585e-16
2.39585e-16
2.39585e-16
2.39585e-16
2.39585e-16
2.39585e-16
2.39585e-16
2.39585e-16
2.39585e-16
2.39585e-16
2.39585e-16
2.39585e-16
2.39585e-16
2.39585e-16
2.39585e-16
2.39585e-16
2.39585e-16
2.39585e-16
2.39585e-16
2.39585e-16
2.39585e-16
2.39585e-16
2.39585e-16
2.39585e-16
2.39585e-16
2.39585e-16
2.39585e-16
2.39585e-16
2.39585e-16
2.39585e-16
2.39585e-16
2.39585e-16
2.39585e-16
2.39585e-16
2.39585e-16
2.39585e-16
2.39585e-16
2.39585e-16
2.39585e-16
2.39585e-16
2.39585e-16
2.39585e-16
2.39585e-16
2.39585e-16
2.39585e-16
2.39585e-16
2.39585e-16
2.39585e-16
2.39585e-16
2.39585e-16
2.39585e-16
2.39585e-16
2.39585e-16
2.39585e-16
2.39585e-16
2.39585e-16
2.39585e-16
2.39585e-16
2.39585e-16
2.39585e-16
2.39585e-16
2.39585e-16
2.39585e-16
2.39585e-16
2.39585e-16
2.39585e-16
2.39585e-16
2.39585e-16
2.39585e-16
2.39585e-16
2.39585e-16
2.39585e-16
2.39585e-16
2.39585e-16
2.39585e-16
2.39585e-16
2.39585e-16
2.39585e-16
2.39585e-16
2.39585e-16
2.39585e-16
2.39585e-16
2.39585e-16
2.39585e-16
2.39585e-16
2.39585e-16
2.39585e-16
2.39585e-16
2.39585e-16
2.39585e-16
2.39585e-16
2.39585e-16
2.39585e-16
2.39585e-16
2.39585e-16
2.39585e-16
2.39585e-16
2.39585e-16
2.39585e-16
2.39585e-16
2.39585e-16
2.39585e-16
2.39585e-16
2.39585e-16
2.39585e-16
2.39585e-16
2.39585e-16
2.39585e-16
2.39585e-16
2.39585e-16
2.39585e-16
2.39585e-16
2.39585e-16
2.39585e-16
2.39585e-16
2.39585e-16
2.39585e-16
2.39585e-16
2.39585e-16
2.39585e-16
2.39585e-16
2.39585e-16
2.39585e-16
2.39585e-16
2.39585e-16
2.39585e-16
2.39585e-16
2.39585e-16
2.39585e-16
2.39585e-16
2.39585e-16
2.39585e-16
2.39585e-16
2.39585e-16
2.39585e-16
2.39585e-16
2.39585e-16
2.39585e-16
2.39585e-16
2.39585e-16
2.39585e-16
2.39585e-16
2.39585e-16
2.39585e-16
2.39585e-16
2.39585e-16
2.39585e-16
2.39585e-16
2.39585e-16
2.39585e-16
2.39585e-16
2.39585e-16
2.39585e-16
2.39585e-16
2.39585e-16
2.39585e-16
2.39585e-16
2.39585e-16
2.39585e-16
2.39585e-16
2.39585e-16
2.39585e-16
2.39585e-16
2.39585e-16
2.39585e-16
2.39585e-16
2.39585e-16
2.39585e-16
2.39585e-16
2.39585e-16
2.39585e-16
)
;

boundaryField
{
    topWall
    {
        type            calculated;
        value           uniform 0;
    }
    bottomWall
    {
        type            zeroGradient;
    }
    sideWallL
    {
        type            symmetry;
    }
    sideWallR
    {
        type            calculated;
        value           uniform 0;
    }
    frontAndBack
    {
        type            empty;
    }
}


// ************************************************************************* //
