/*--------------------------------*- C++ -*----------------------------------*\
  =========                 |
  \\      /  F ield         | OpenFOAM: The Open Source CFD Toolbox
   \\    /   O peration     | Website:  https://openfoam.org
    \\  /    A nd           | Version:  7
     \\/     M anipulation  |
\*---------------------------------------------------------------------------*/
FoamFile
{
    version     2.0;
    format      ascii;
    class       volScalarField;
    location    "9";
    object      rhois;
}
// * * * * * * * * * * * * * * * * * * * * * * * * * * * * * * * * * * * * * //

dimensions      [1 -3 0 0 0 0 0];

internalField   nonuniform List<scalar> 
900
(
3.74351e-08
3.7434e-08
3.74315e-08
3.74269e-08
3.7419e-08
3.74059e-08
3.7384e-08
3.7348e-08
3.72886e-08
3.71909e-08
3.70301e-08
3.67648e-08
3.63243e-08
3.55853e-08
3.43253e-08
3.2124e-08
2.81639e-08
2.09728e-08
9.54788e-09
6.92851e-10
5.12714e-09
5.12667e-09
5.1256e-09
5.12366e-09
5.12034e-09
5.11479e-09
5.10559e-09
5.09047e-09
5.0657e-09
5.02528e-09
4.95958e-09
4.8532e-09
4.68178e-09
4.40778e-09
3.97659e-09
3.32023e-09
2.39239e-09
1.28324e-09
3.72728e-10
3.33805e-11
9.18739e-10
9.18603e-10
9.18295e-10
9.17735e-10
9.1678e-10
9.15188e-10
9.12563e-10
9.08268e-10
9.01289e-10
8.90027e-10
8.72004e-10
8.43473e-10
7.99002e-10
7.3133e-10
6.32337e-10
4.96996e-10
3.32637e-10
1.70456e-10
5.794e-11
1.26371e-11
2.19763e-10
2.19722e-10
2.19629e-10
2.19461e-10
2.19175e-10
2.18701e-10
2.17922e-10
2.16657e-10
2.14619e-10
2.11369e-10
2.06254e-10
1.98332e-10
1.86348e-10
1.6883e-10
1.44518e-10
1.13369e-10
7.80912e-11
4.49192e-11
2.0991e-11
8.64699e-12
7.06277e-11
7.06136e-11
7.0582e-11
7.05246e-11
7.04274e-11
7.02666e-11
7.00043e-11
6.95813e-11
6.89063e-11
6.78428e-11
6.61933e-11
6.36873e-11
5.99845e-11
5.4722e-11
4.76432e-11
3.88373e-11
2.90202e-11
1.95849e-11
1.20702e-11
7.22986e-12
3.01871e-11
3.01815e-11
3.0169e-11
3.01463e-11
3.01079e-11
3.00448e-11
2.99425e-11
2.97787e-11
2.95197e-11
2.91161e-11
2.84983e-11
2.75741e-11
2.62318e-11
2.43582e-11
2.18771e-11
1.88147e-11
1.53657e-11
1.19035e-11
8.86942e-12
6.57319e-12
1.66124e-11
1.66099e-11
1.66041e-11
1.65938e-11
1.65764e-11
1.65479e-11
1.6502e-11
1.64291e-11
1.63148e-11
1.61385e-11
1.58717e-11
1.54776e-11
1.49126e-11
1.41328e-11
1.31076e-11
1.18402e-11
1.0388e-11
8.86875e-12
7.43573e-12
6.22606e-12
1.11739e-11
1.11725e-11
1.11696e-11
1.11643e-11
1.11554e-11
1.11409e-11
1.11177e-11
1.10812e-11
1.10243e-11
1.09376e-11
1.08077e-11
1.06178e-11
1.03485e-11
9.97985e-12
9.49731e-12
8.89877e-12
8.20263e-12
7.45129e-12
6.7056e-12
6.02925e-12
8.67399e-12
8.67324e-12
8.67156e-12
8.66856e-12
8.66356e-12
8.65547e-12
8.64262e-12
8.6225e-12
8.59153e-12
8.54466e-12
8.47522e-12
8.37478e-12
8.23363e-12
8.04198e-12
7.79217e-12
7.48188e-12
7.11749e-12
6.71614e-12
6.30443e-12
5.91331e-12
7.40302e-12
7.40256e-12
7.40155e-12
7.39973e-12
7.39673e-12
7.39189e-12
7.38427e-12
7.37243e-12
7.35437e-12
7.32732e-12
7.28763e-12
7.23083e-12
7.15177e-12
7.0453e-12
6.9073e-12
6.73613e-12
6.53427e-12
6.30932e-12
6.07389e-12
5.84358e-12
6.70981e-12
6.70952e-12
6.70887e-12
6.70772e-12
6.70583e-12
6.70281e-12
6.69808e-12
6.6908e-12
6.67979e-12
6.66347e-12
6.63978e-12
6.60622e-12
6.55998e-12
6.49826e-12
6.41881e-12
6.32066e-12
6.2049e-12
6.07522e-12
5.93796e-12
5.80124e-12
6.31374e-12
6.31355e-12
6.31312e-12
6.31238e-12
6.31115e-12
6.30921e-12
6.3062e-12
6.30161e-12
6.29473e-12
6.28463e-12
6.27012e-12
6.24977e-12
6.22203e-12
6.18536e-12
6.13852e-12
6.081e-12
6.01334e-12
5.93748e-12
5.85673e-12
5.77545e-12
6.08088e-12
6.08075e-12
6.08047e-12
6.07998e-12
6.07918e-12
6.07792e-12
6.07598e-12
6.07304e-12
6.06869e-12
6.06236e-12
6.05337e-12
6.04089e-12
6.02405e-12
6.002e-12
5.97408e-12
5.94003e-12
5.90016e-12
5.85554e-12
5.80795e-12
5.75977e-12
5.94183e-12
5.94174e-12
5.94156e-12
5.94123e-12
5.94071e-12
5.93989e-12
5.93864e-12
5.93676e-12
5.93401e-12
5.93004e-12
5.92445e-12
5.91679e-12
5.90654e-12
5.89325e-12
5.87657e-12
5.85637e-12
5.83286e-12
5.80663e-12
5.77867e-12
5.75029e-12
5.8583e-12
5.85824e-12
5.85812e-12
5.85791e-12
5.85757e-12
5.85704e-12
5.85623e-12
5.85504e-12
5.85331e-12
5.85083e-12
5.84738e-12
5.84269e-12
5.83648e-12
5.8285e-12
5.81857e-12
5.80664e-12
5.79284e-12
5.7775e-12
5.76118e-12
5.7446e-12
5.80815e-12
5.80812e-12
5.80804e-12
5.8079e-12
5.80768e-12
5.80734e-12
5.80684e-12
5.80609e-12
5.80501e-12
5.80348e-12
5.80137e-12
5.79852e-12
5.79479e-12
5.79004e-12
5.78418e-12
5.77719e-12
5.76915e-12
5.76025e-12
5.75081e-12
5.74122e-12
5.77822e-12
5.7782e-12
5.77815e-12
5.77806e-12
5.77792e-12
5.77771e-12
5.77739e-12
5.77693e-12
5.77626e-12
5.77533e-12
5.77406e-12
5.77236e-12
5.77014e-12
5.76735e-12
5.76392e-12
5.75987e-12
5.75523e-12
5.75012e-12
5.74471e-12
5.73923e-12
5.76051e-12
5.7605e-12
5.76046e-12
5.76041e-12
5.76032e-12
5.76019e-12
5.76e-12
5.75971e-12
5.75931e-12
5.75876e-12
5.758e-12
5.75699e-12
5.7557e-12
5.75407e-12
5.7521e-12
5.74977e-12
5.74713e-12
5.74423e-12
5.74117e-12
5.73807e-12
5.75015e-12
5.75014e-12
5.75012e-12
5.75009e-12
5.75003e-12
5.74996e-12
5.74984e-12
5.74967e-12
5.74943e-12
5.7491e-12
5.74866e-12
5.74807e-12
5.74733e-12
5.7464e-12
5.74527e-12
5.74396e-12
5.74247e-12
5.74084e-12
5.73913e-12
5.73741e-12
5.74417e-12
5.74416e-12
5.74415e-12
5.74413e-12
5.7441e-12
5.74405e-12
5.74398e-12
5.74388e-12
5.74374e-12
5.74355e-12
5.74329e-12
5.74296e-12
5.74254e-12
5.74201e-12
5.74138e-12
5.74065e-12
5.73982e-12
5.73892e-12
5.73798e-12
5.73703e-12
5.74076e-12
5.74075e-12
5.74075e-12
5.74073e-12
5.74072e-12
5.74069e-12
5.74065e-12
5.74059e-12
5.74051e-12
5.7404e-12
5.74026e-12
5.74007e-12
5.73983e-12
5.73954e-12
5.73919e-12
5.73879e-12
5.73834e-12
5.73785e-12
5.73733e-12
5.73682e-12
5.73884e-12
5.73884e-12
5.73884e-12
5.73883e-12
5.73882e-12
5.7388e-12
5.73878e-12
5.73875e-12
5.7387e-12
5.73864e-12
5.73856e-12
5.73846e-12
5.73833e-12
5.73817e-12
5.73798e-12
5.73776e-12
5.73752e-12
5.73725e-12
5.73698e-12
5.7367e-12
5.73778e-12
5.73778e-12
5.73778e-12
5.73778e-12
5.73777e-12
5.73776e-12
5.73775e-12
5.73773e-12
5.73771e-12
5.73767e-12
5.73763e-12
5.73757e-12
5.7375e-12
5.73742e-12
5.73732e-12
5.7372e-12
5.73707e-12
5.73693e-12
5.73678e-12
5.73664e-12
5.73721e-12
5.73721e-12
5.73721e-12
5.7372e-12
5.7372e-12
5.7372e-12
5.73719e-12
5.73718e-12
5.73717e-12
5.73715e-12
5.73712e-12
5.73709e-12
5.73706e-12
5.73701e-12
5.73696e-12
5.7369e-12
5.73683e-12
5.73676e-12
5.73668e-12
5.7366e-12
5.7369e-12
5.7369e-12
5.7369e-12
5.7369e-12
5.7369e-12
5.73689e-12
5.73689e-12
5.73688e-12
5.73688e-12
5.73687e-12
5.73685e-12
5.73684e-12
5.73682e-12
5.7368e-12
5.73677e-12
5.73674e-12
5.7367e-12
5.73666e-12
5.73662e-12
5.73658e-12
5.73674e-12
5.73674e-12
5.73674e-12
5.73674e-12
5.73673e-12
5.73673e-12
5.73673e-12
5.73673e-12
5.73672e-12
5.73672e-12
5.73671e-12
5.7367e-12
5.73669e-12
5.73668e-12
5.73667e-12
5.73665e-12
5.73663e-12
5.73661e-12
5.7366e-12
5.73658e-12
5.73665e-12
5.73665e-12
5.73665e-12
5.73665e-12
5.73665e-12
5.73665e-12
5.73665e-12
5.73665e-12
5.73665e-12
5.73664e-12
5.73664e-12
5.73664e-12
5.73663e-12
5.73662e-12
5.73662e-12
5.73661e-12
5.7366e-12
5.73659e-12
5.73658e-12
5.73657e-12
5.73661e-12
5.73661e-12
5.73661e-12
5.73661e-12
5.73661e-12
5.73661e-12
5.73661e-12
5.73661e-12
5.73661e-12
5.7366e-12
5.7366e-12
5.7366e-12
5.7366e-12
5.73659e-12
5.73659e-12
5.73659e-12
5.73658e-12
5.73658e-12
5.73657e-12
5.73657e-12
5.73659e-12
5.73659e-12
5.73659e-12
5.73659e-12
5.73659e-12
5.73659e-12
5.73659e-12
5.73659e-12
5.73658e-12
5.73658e-12
5.73658e-12
5.73658e-12
5.73658e-12
5.73658e-12
5.73658e-12
5.73658e-12
5.73657e-12
5.73657e-12
5.73657e-12
5.73657e-12
5.73658e-12
5.73658e-12
5.73658e-12
5.73658e-12
5.73658e-12
5.73658e-12
5.73658e-12
5.73658e-12
5.73657e-12
5.73657e-12
5.73657e-12
5.73657e-12
5.73657e-12
5.73657e-12
5.73657e-12
5.73657e-12
5.73657e-12
5.73657e-12
5.73657e-12
5.73657e-12
5.73657e-12
5.73657e-12
5.73657e-12
5.73657e-12
5.73657e-12
5.73657e-12
5.73657e-12
5.73657e-12
5.73657e-12
5.73657e-12
5.73657e-12
5.73657e-12
5.73657e-12
5.73657e-12
5.73657e-12
5.73657e-12
5.73657e-12
5.73657e-12
5.73657e-12
5.73657e-12
5.73657e-12
5.73657e-12
5.73657e-12
5.73657e-12
5.73657e-12
5.73657e-12
5.73657e-12
5.73657e-12
5.73657e-12
5.73657e-12
5.73657e-12
5.73657e-12
5.73657e-12
5.73657e-12
5.73657e-12
5.73657e-12
5.73657e-12
5.73657e-12
5.73657e-12
5.73657e-12
5.73657e-12
5.73657e-12
5.73657e-12
5.73657e-12
5.73657e-12
5.73657e-12
5.73657e-12
5.73657e-12
5.73657e-12
5.73657e-12
5.73657e-12
5.73657e-12
5.73657e-12
5.73657e-12
5.73657e-12
5.73657e-12
5.73657e-12
5.73657e-12
5.73657e-12
5.73657e-12
5.73657e-12
5.73657e-12
5.73657e-12
5.73657e-12
5.73657e-12
5.73657e-12
5.73657e-12
5.73657e-12
5.73657e-12
5.73657e-12
5.73657e-12
5.73657e-12
5.73657e-12
5.73657e-12
5.73657e-12
5.73657e-12
5.73657e-12
5.73657e-12
5.73657e-12
5.73657e-12
5.73657e-12
5.73657e-12
5.73657e-12
5.73657e-12
5.73657e-12
5.73657e-12
5.73657e-12
5.73657e-12
5.73657e-12
5.73657e-12
5.73657e-12
5.73657e-12
5.73657e-12
5.73657e-12
5.73657e-12
5.73657e-12
5.73657e-12
5.73657e-12
5.73657e-12
5.73657e-12
5.73657e-12
5.73657e-12
5.73657e-12
5.73657e-12
5.73657e-12
5.73657e-12
5.73657e-12
5.73657e-12
5.73657e-12
5.73657e-12
5.73657e-12
5.73657e-12
5.73657e-12
5.73657e-12
5.73657e-12
5.73657e-12
5.73657e-12
5.73657e-12
5.73657e-12
5.73657e-12
5.73657e-12
5.73657e-12
5.73657e-12
5.73657e-12
5.73657e-12
5.73657e-12
5.73657e-12
5.73657e-12
5.73657e-12
5.73657e-12
5.73657e-12
5.73657e-12
5.73657e-12
5.73657e-12
5.73657e-12
5.73657e-12
5.73657e-12
5.73657e-12
5.73657e-12
5.73657e-12
5.73657e-12
5.73657e-12
5.73657e-12
5.73657e-12
5.73657e-12
5.73657e-12
5.73657e-12
5.73657e-12
5.73657e-12
5.73657e-12
5.73657e-12
5.73657e-12
5.73657e-12
5.73657e-12
5.73657e-12
5.73657e-12
5.73657e-12
5.73657e-12
5.73657e-12
5.73657e-12
5.73657e-12
5.73657e-12
5.73657e-12
5.73657e-12
5.73657e-12
5.73657e-12
5.73657e-12
5.73657e-12
5.73657e-12
5.73657e-12
5.73657e-12
5.73657e-12
5.73657e-12
5.73657e-12
5.73657e-12
5.73657e-12
5.73657e-12
5.73657e-12
5.73657e-12
5.73657e-12
5.73657e-12
5.73657e-12
5.73657e-12
5.73657e-12
5.73657e-12
5.73657e-12
5.73657e-12
5.73657e-12
5.73657e-12
5.73657e-12
5.73657e-12
5.73657e-12
5.73657e-12
5.73657e-12
5.73657e-12
5.73657e-12
5.73657e-12
5.73657e-12
5.73657e-12
5.73657e-12
5.73657e-12
5.73657e-12
5.73657e-12
5.73657e-12
5.73657e-12
5.73657e-12
5.73657e-12
5.73657e-12
5.73657e-12
5.73657e-12
5.73657e-12
5.73657e-12
5.73657e-12
5.73657e-12
5.73657e-12
5.73657e-12
5.73657e-12
5.73657e-12
5.73657e-12
5.73657e-12
5.73657e-12
5.73657e-12
5.73657e-12
5.73657e-12
5.73657e-12
5.73657e-12
5.73657e-12
5.73657e-12
5.73657e-12
5.73657e-12
5.73657e-12
5.73657e-12
5.73657e-12
5.73657e-12
5.73657e-12
5.73657e-12
5.73657e-12
5.73657e-12
5.73657e-12
5.73657e-12
5.73657e-12
5.73657e-12
5.73657e-12
5.73657e-12
5.73657e-12
5.73657e-12
5.73657e-12
5.73657e-12
5.73657e-12
5.73657e-12
5.73657e-12
5.73657e-12
5.73657e-12
5.73657e-12
5.73657e-12
5.73657e-12
5.73657e-12
5.73657e-12
5.73657e-12
5.73657e-12
5.73657e-12
5.73657e-12
5.73657e-12
5.73657e-12
5.73657e-12
5.73657e-12
5.73657e-12
5.73657e-12
5.73657e-12
5.73657e-12
5.73657e-12
5.73657e-12
5.73657e-12
5.73657e-12
5.73657e-12
5.73657e-12
5.73657e-12
5.73657e-12
5.73657e-12
5.73657e-12
5.73657e-12
5.73657e-12
5.73657e-12
5.73657e-12
5.73657e-12
5.73657e-12
5.73657e-12
5.73657e-12
5.73657e-12
5.73657e-12
5.73657e-12
5.73657e-12
5.73657e-12
5.73657e-12
5.73657e-12
5.73657e-12
5.73657e-12
5.73657e-12
5.73657e-12
5.73657e-12
)
;

boundaryField
{
    topWall
    {
        type            zeroGradient;
    }
    bottomWall
    {
        type            zeroGradient;
    }
    sideWallL
    {
        type            symmetry;
    }
    sideWallR
    {
        type            zeroGradient;
    }
    frontAndBack
    {
        type            empty;
    }
}


// ************************************************************************* //
