/*--------------------------------*- C++ -*----------------------------------*\
  =========                 |
  \\      /  F ield         | OpenFOAM: The Open Source CFD Toolbox
   \\    /   O peration     | Website:  https://openfoam.org
    \\  /    A nd           | Version:  7
     \\/     M anipulation  |
\*---------------------------------------------------------------------------*/
FoamFile
{
    version     2.0;
    format      ascii;
    class       volScalarField;
    location    "9";
    object      rhot1;
}
// * * * * * * * * * * * * * * * * * * * * * * * * * * * * * * * * * * * * * //

dimensions      [1 -3 0 0 0 0 0];

internalField   nonuniform List<scalar> 
900
(
8.43462e-10
8.43425e-10
8.43344e-10
8.43195e-10
8.42941e-10
8.42518e-10
8.41819e-10
8.4067e-10
8.38788e-10
8.3571e-10
8.30675e-10
8.22423e-10
8.08834e-10
7.86277e-10
7.48371e-10
6.83627e-10
5.71575e-10
3.83084e-10
1.31757e-10
3.67822e-12
5.9366e-11
5.93581e-11
5.93402e-11
5.93076e-11
5.92521e-11
5.91598e-11
5.90078e-11
5.87591e-11
5.83544e-11
5.76991e-11
5.66434e-11
5.49535e-11
5.22731e-11
4.8085e-11
4.17186e-11
3.25526e-11
2.07608e-11
8.83207e-12
1.60824e-12
5.47725e-14
5.88809e-12
5.88681e-12
5.88391e-12
5.87866e-12
5.86974e-12
5.85493e-12
5.83067e-12
5.79123e-12
5.72762e-12
5.62591e-12
5.46504e-12
5.21434e-12
4.83211e-12
4.26898e-12
3.4847e-12
2.49164e-12
1.42453e-12
5.59955e-13
1.22349e-13
1.39426e-14
8.42552e-13
8.42316e-13
8.41785e-13
8.40826e-13
8.392e-13
8.36515e-13
8.32137e-13
8.25073e-13
8.13792e-13
7.95992e-13
7.68346e-13
7.26319e-13
6.64369e-13
5.77148e-13
4.6264e-13
3.2765e-13
1.92728e-13
8.73563e-14
2.9177e-14
8.20448e-15
1.75037e-13
1.74983e-13
1.74863e-13
1.74646e-13
1.7428e-13
1.73678e-13
1.72701e-13
1.71138e-13
1.68665e-13
1.64812e-13
1.58921e-13
1.50142e-13
1.37516e-13
1.2024e-13
9.82353e-14
7.29178e-14
4.76523e-14
2.68178e-14
1.32563e-14
6.40814e-15
5.23436e-14
5.23284e-14
5.22941e-14
5.22325e-14
5.21288e-14
5.1959e-14
5.16855e-14
5.12506e-14
5.05689e-14
4.95181e-14
4.79319e-14
4.56025e-14
4.23039e-14
3.78566e-14
3.22441e-14
2.57591e-14
1.90767e-14
1.3101e-14
8.55735e-15
5.62647e-15
2.19286e-14
2.19232e-14
2.19111e-14
2.18894e-14
2.18531e-14
2.17939e-14
2.1699e-14
2.15492e-14
2.13164e-14
2.09607e-14
2.04293e-14
1.96569e-14
1.85733e-14
1.7121e-14
1.52848e-14
1.31288e-14
1.0817e-14
8.58924e-15
6.68033e-15
5.22768e-15
1.22081e-14
1.22058e-14
1.22007e-14
1.21915e-14
1.21763e-14
1.21515e-14
1.2112e-14
1.20501e-14
1.19545e-14
1.18098e-14
1.15954e-14
1.12863e-14
1.08554e-14
1.0279e-14
9.54652e-15
8.6718e-15
7.70123e-15
6.71096e-15
5.78864e-15
5.00639e-15
8.40792e-15
8.4068e-15
8.40429e-15
8.39982e-15
8.39237e-15
8.38037e-15
8.36137e-15
8.33178e-15
8.28646e-15
8.21836e-15
8.11827e-15
7.97501e-15
7.77636e-15
7.51118e-15
7.17289e-15
6.76377e-15
6.29861e-15
5.80513e-15
5.31953e-15
4.87778e-15
6.68151e-15
6.68089e-15
6.67952e-15
6.67708e-15
6.67304e-15
6.66656e-15
6.65637e-15
6.64062e-15
6.61668e-15
6.58099e-15
6.52898e-15
6.45509e-15
6.35326e-15
6.21777e-15
6.04477e-15
5.83408e-15
5.59093e-15
5.32659e-15
5.05729e-15
4.80111e-15
5.80939e-15
5.80902e-15
5.80821e-15
5.80677e-15
5.80441e-15
5.80063e-15
5.79474e-15
5.7857e-15
5.77208e-15
5.75195e-15
5.72286e-15
5.68187e-15
5.62577e-15
5.55153e-15
5.45693e-15
5.34149e-15
5.20727e-15
5.05931e-15
4.90539e-15
4.75481e-15
5.33617e-15
5.33594e-15
5.33544e-15
5.33455e-15
5.33309e-15
5.33079e-15
5.32721e-15
5.32177e-15
5.31364e-15
5.30174e-15
5.28468e-15
5.26087e-15
5.22855e-15
5.18605e-15
5.13215e-15
5.06649e-15
4.98997e-15
4.90505e-15
4.81567e-15
4.72672e-15
5.06739e-15
5.06724e-15
5.06692e-15
5.06635e-15
5.06543e-15
5.06398e-15
5.06175e-15
5.05839e-15
5.0534e-15
5.04617e-15
5.03591e-15
5.02171e-15
5.0026e-15
4.97767e-15
4.94625e-15
4.90813e-15
4.86376e-15
4.81442e-15
4.76219e-15
4.70969e-15
4.91052e-15
4.91043e-15
4.91022e-15
4.90985e-15
4.90926e-15
4.90834e-15
4.90693e-15
4.90483e-15
4.90173e-15
4.89729e-15
4.89104e-15
4.88247e-15
4.87104e-15
4.85626e-15
4.83775e-15
4.81543e-15
4.78954e-15
4.76077e-15
4.73025e-15
4.6994e-15
4.8177e-15
4.81764e-15
4.8175e-15
4.81727e-15
4.81689e-15
4.8163e-15
4.81541e-15
4.81409e-15
4.81217e-15
4.80943e-15
4.80562e-15
4.80044e-15
4.79359e-15
4.78481e-15
4.7739e-15
4.76082e-15
4.74571e-15
4.72898e-15
4.71122e-15
4.69323e-15
4.76252e-15
4.76248e-15
4.7624e-15
4.76225e-15
4.762e-15
4.76163e-15
4.76107e-15
4.76025e-15
4.75907e-15
4.75739e-15
4.75507e-15
4.75196e-15
4.74788e-15
4.74268e-15
4.73628e-15
4.72865e-15
4.71989e-15
4.71021e-15
4.69996e-15
4.68957e-15
4.72979e-15
4.72977e-15
4.72971e-15
4.72962e-15
4.72947e-15
4.72923e-15
4.72889e-15
4.72838e-15
4.72766e-15
4.72664e-15
4.72525e-15
4.72339e-15
4.72098e-15
4.71794e-15
4.71421e-15
4.7098e-15
4.70476e-15
4.69921e-15
4.69335e-15
4.68741e-15
4.71051e-15
4.71049e-15
4.71046e-15
4.7104e-15
4.7103e-15
4.71016e-15
4.70995e-15
4.70964e-15
4.7092e-15
4.7086e-15
4.70777e-15
4.70668e-15
4.70527e-15
4.70351e-15
4.70136e-15
4.69884e-15
4.69597e-15
4.69283e-15
4.68952e-15
4.68616e-15
4.69925e-15
4.69924e-15
4.69922e-15
4.69918e-15
4.69913e-15
4.69904e-15
4.69891e-15
4.69873e-15
4.69847e-15
4.69811e-15
4.69763e-15
4.697e-15
4.69619e-15
4.69518e-15
4.69396e-15
4.69254e-15
4.69092e-15
4.68916e-15
4.68731e-15
4.68544e-15
4.69276e-15
4.69276e-15
4.69274e-15
4.69272e-15
4.69269e-15
4.69264e-15
4.69256e-15
4.69245e-15
4.6923e-15
4.6921e-15
4.69182e-15
4.69146e-15
4.691e-15
4.69043e-15
4.68975e-15
4.68895e-15
4.68806e-15
4.68708e-15
4.68606e-15
4.68503e-15
4.68907e-15
4.68907e-15
4.68906e-15
4.68904e-15
4.68902e-15
4.68899e-15
4.68895e-15
4.68889e-15
4.6888e-15
4.68869e-15
4.68853e-15
4.68833e-15
4.68807e-15
4.68775e-15
4.68738e-15
4.68694e-15
4.68645e-15
4.68592e-15
4.68536e-15
4.6848e-15
4.687e-15
4.68699e-15
4.68699e-15
4.68698e-15
4.68697e-15
4.68695e-15
4.68693e-15
4.68689e-15
4.68685e-15
4.68678e-15
4.68669e-15
4.68658e-15
4.68644e-15
4.68627e-15
4.68606e-15
4.68583e-15
4.68556e-15
4.68528e-15
4.68498e-15
4.68468e-15
4.68585e-15
4.68585e-15
4.68585e-15
4.68584e-15
4.68584e-15
4.68583e-15
4.68581e-15
4.68579e-15
4.68577e-15
4.68573e-15
4.68568e-15
4.68562e-15
4.68555e-15
4.68545e-15
4.68534e-15
4.68522e-15
4.68508e-15
4.68493e-15
4.68477e-15
4.68461e-15
4.68523e-15
4.68523e-15
4.68523e-15
4.68522e-15
4.68522e-15
4.68521e-15
4.68521e-15
4.6852e-15
4.68518e-15
4.68516e-15
4.68514e-15
4.6851e-15
4.68506e-15
4.68501e-15
4.68496e-15
4.68489e-15
4.68482e-15
4.68474e-15
4.68465e-15
4.68457e-15
4.68489e-15
4.68489e-15
4.68489e-15
4.68489e-15
4.68489e-15
4.68489e-15
4.68488e-15
4.68488e-15
4.68487e-15
4.68486e-15
4.68484e-15
4.68483e-15
4.68481e-15
4.68478e-15
4.68475e-15
4.68472e-15
4.68468e-15
4.68464e-15
4.68459e-15
4.68455e-15
4.68472e-15
4.68472e-15
4.68472e-15
4.68472e-15
4.68471e-15
4.68471e-15
4.68471e-15
4.68471e-15
4.6847e-15
4.6847e-15
4.68469e-15
4.68468e-15
4.68467e-15
4.68466e-15
4.68464e-15
4.68463e-15
4.68461e-15
4.68459e-15
4.68456e-15
4.68454e-15
4.68463e-15
4.68463e-15
4.68462e-15
4.68462e-15
4.68462e-15
4.68462e-15
4.68462e-15
4.68462e-15
4.68462e-15
4.68462e-15
4.68461e-15
4.68461e-15
4.6846e-15
4.6846e-15
4.68459e-15
4.68458e-15
4.68457e-15
4.68456e-15
4.68455e-15
4.68454e-15
4.68458e-15
4.68458e-15
4.68458e-15
4.68458e-15
4.68458e-15
4.68458e-15
4.68458e-15
4.68458e-15
4.68457e-15
4.68457e-15
4.68457e-15
4.68457e-15
4.68457e-15
4.68456e-15
4.68456e-15
4.68455e-15
4.68455e-15
4.68454e-15
4.68454e-15
4.68453e-15
4.68455e-15
4.68455e-15
4.68455e-15
4.68455e-15
4.68455e-15
4.68455e-15
4.68455e-15
4.68455e-15
4.68455e-15
4.68455e-15
4.68455e-15
4.68455e-15
4.68455e-15
4.68455e-15
4.68455e-15
4.68454e-15
4.68454e-15
4.68454e-15
4.68454e-15
4.68453e-15
4.68454e-15
4.68454e-15
4.68454e-15
4.68454e-15
4.68454e-15
4.68454e-15
4.68454e-15
4.68454e-15
4.68454e-15
4.68454e-15
4.68454e-15
4.68454e-15
4.68454e-15
4.68454e-15
4.68454e-15
4.68454e-15
4.68454e-15
4.68453e-15
4.68453e-15
4.68453e-15
4.68454e-15
4.68454e-15
4.68454e-15
4.68454e-15
4.68454e-15
4.68454e-15
4.68454e-15
4.68454e-15
4.68454e-15
4.68454e-15
4.68454e-15
4.68454e-15
4.68454e-15
4.68454e-15
4.68453e-15
4.68453e-15
4.68453e-15
4.68453e-15
4.68453e-15
4.68453e-15
4.68453e-15
4.68453e-15
4.68453e-15
4.68453e-15
4.68453e-15
4.68453e-15
4.68453e-15
4.68453e-15
4.68453e-15
4.68453e-15
4.68453e-15
4.68453e-15
4.68453e-15
4.68453e-15
4.68453e-15
4.68453e-15
4.68453e-15
4.68453e-15
4.68453e-15
4.68453e-15
4.68453e-15
4.68453e-15
4.68453e-15
4.68453e-15
4.68453e-15
4.68453e-15
4.68453e-15
4.68453e-15
4.68453e-15
4.68453e-15
4.68453e-15
4.68453e-15
4.68453e-15
4.68453e-15
4.68453e-15
4.68453e-15
4.68453e-15
4.68453e-15
4.68453e-15
4.68453e-15
4.68453e-15
4.68453e-15
4.68453e-15
4.68453e-15
4.68453e-15
4.68453e-15
4.68453e-15
4.68453e-15
4.68453e-15
4.68453e-15
4.68453e-15
4.68453e-15
4.68453e-15
4.68453e-15
4.68453e-15
4.68453e-15
4.68453e-15
4.68453e-15
4.68453e-15
4.68453e-15
4.68453e-15
4.68453e-15
4.68453e-15
4.68453e-15
4.68453e-15
4.68453e-15
4.68453e-15
4.68453e-15
4.68453e-15
4.68453e-15
4.68453e-15
4.68453e-15
4.68453e-15
4.68453e-15
4.68453e-15
4.68453e-15
4.68453e-15
4.68453e-15
4.68453e-15
4.68453e-15
4.68453e-15
4.68453e-15
4.68453e-15
4.68453e-15
4.68453e-15
4.68453e-15
4.68453e-15
4.68453e-15
4.68453e-15
4.68453e-15
4.68453e-15
4.68453e-15
4.68453e-15
4.68453e-15
4.68453e-15
4.68453e-15
4.68453e-15
4.68453e-15
4.68453e-15
4.68453e-15
4.68453e-15
4.68453e-15
4.68453e-15
4.68453e-15
4.68453e-15
4.68453e-15
4.68453e-15
4.68453e-15
4.68453e-15
4.68453e-15
4.68453e-15
4.68453e-15
4.68453e-15
4.68453e-15
4.68453e-15
4.68453e-15
4.68453e-15
4.68453e-15
4.68453e-15
4.68453e-15
4.68453e-15
4.68453e-15
4.68453e-15
4.68453e-15
4.68453e-15
4.68453e-15
4.68453e-15
4.68453e-15
4.68453e-15
4.68453e-15
4.68453e-15
4.68453e-15
4.68453e-15
4.68453e-15
4.68453e-15
4.68453e-15
4.68453e-15
4.68453e-15
4.68453e-15
4.68453e-15
4.68453e-15
4.68453e-15
4.68453e-15
4.68453e-15
4.68453e-15
4.68453e-15
4.68453e-15
4.68453e-15
4.68453e-15
4.68453e-15
4.68453e-15
4.68453e-15
4.68453e-15
4.68453e-15
4.68453e-15
4.68453e-15
4.68453e-15
4.68453e-15
4.68453e-15
4.68453e-15
4.68453e-15
4.68453e-15
4.68453e-15
4.68453e-15
4.68453e-15
4.68453e-15
4.68453e-15
4.68453e-15
4.68453e-15
4.68453e-15
4.68453e-15
4.68453e-15
4.68453e-15
4.68453e-15
4.68453e-15
4.68453e-15
4.68453e-15
4.68453e-15
4.68453e-15
4.68453e-15
4.68453e-15
4.68453e-15
4.68453e-15
4.68453e-15
4.68453e-15
4.68453e-15
4.68453e-15
4.68453e-15
4.68453e-15
4.68453e-15
4.68453e-15
4.68453e-15
4.68453e-15
4.68453e-15
4.68453e-15
4.68453e-15
4.68453e-15
4.68453e-15
4.68453e-15
4.68453e-15
4.68453e-15
4.68453e-15
4.68453e-15
4.68453e-15
4.68453e-15
4.68453e-15
4.68453e-15
4.68453e-15
4.68453e-15
4.68453e-15
4.68453e-15
4.68453e-15
4.68453e-15
4.68453e-15
4.68453e-15
4.68453e-15
4.68453e-15
4.68453e-15
4.68453e-15
4.68453e-15
4.68453e-15
4.68453e-15
4.68453e-15
4.68453e-15
4.68453e-15
4.68453e-15
4.68453e-15
4.68453e-15
4.68453e-15
4.68453e-15
4.68453e-15
4.68453e-15
4.68453e-15
4.68453e-15
4.68453e-15
4.68453e-15
4.68453e-15
4.68453e-15
4.68453e-15
4.68453e-15
4.68453e-15
4.68453e-15
4.68453e-15
4.68453e-15
4.68453e-15
4.68453e-15
4.68453e-15
4.68453e-15
4.68453e-15
4.68453e-15
4.68453e-15
4.68453e-15
4.68453e-15
4.68453e-15
4.68453e-15
4.68453e-15
4.68453e-15
4.68453e-15
4.68453e-15
4.68453e-15
4.68453e-15
4.68453e-15
4.68453e-15
4.68453e-15
4.68453e-15
4.68453e-15
4.68453e-15
4.68453e-15
4.68453e-15
4.68453e-15
4.68453e-15
4.68453e-15
4.68453e-15
4.68453e-15
4.68453e-15
4.68453e-15
4.68453e-15
4.68453e-15
4.68453e-15
4.68453e-15
)
;

boundaryField
{
    topWall
    {
        type            zeroGradient;
    }
    bottomWall
    {
        type            zeroGradient;
    }
    sideWallL
    {
        type            symmetry;
    }
    sideWallR
    {
        type            calculated;
        value           uniform 0;
    }
    frontAndBack
    {
        type            empty;
    }
}


// ************************************************************************* //
