/*--------------------------------*- C++ -*----------------------------------*\
  =========                 |
  \\      /  F ield         | OpenFOAM: The Open Source CFD Toolbox
   \\    /   O peration     | Website:  https://openfoam.org
    \\  /    A nd           | Version:  7
     \\/     M anipulation  |
\*---------------------------------------------------------------------------*/
FoamFile
{
    version     2.0;
    format      ascii;
    class       volScalarField;
    location    "9";
    object      T;
}
// * * * * * * * * * * * * * * * * * * * * * * * * * * * * * * * * * * * * * //

dimensions      [0 0 0 1 0 0 0];

internalField   nonuniform List<scalar> 
900
(
352.015
352.015
352.014
352.012
352.009
352.005
351.998
351.986
351.967
351.936
351.886
351.805
351.673
351.452
351.072
350.387
349.055
346.137
338.604
315.212
334.165
334.163
334.161
334.156
334.148
334.135
334.114
334.08
334.026
333.94
333.801
333.578
333.215
332.62
331.627
329.923
326.901
321.317
310.62
290.128
319.809
319.807
319.803
319.796
319.784
319.764
319.732
319.681
319.6
319.471
319.265
318.94
318.421
317.593
316.261
314.101
310.572
304.804
295.552
281.657
308.395
308.392
308.387
308.378
308.363
308.338
308.299
308.236
308.138
307.982
307.74
307.361
306.772
305.858
304.447
302.278
298.98
294.077
287.104
278.01
299.427
299.425
299.419
299.409
299.392
299.365
299.322
299.254
299.148
298.984
298.731
298.344
297.757
296.874
295.56
293.637
290.883
287.074
282.089
276.116
292.474
292.471
292.465
292.455
292.438
292.41
292.367
292.3
292.196
292.036
291.795
291.434
290.898
290.116
288.992
287.413
285.26
282.443
278.964
275.009
287.155
287.152
287.147
287.137
287.12
287.094
287.054
286.991
286.895
286.751
286.536
286.22
285.762
285.111
284.205
282.976
281.365
279.344
276.95
274.318
283.144
283.142
283.137
283.128
283.113
283.089
283.053
282.998
282.915
282.791
282.61
282.348
281.976
281.46
280.761
279.841
278.673
277.254
275.623
273.87
280.165
280.163
280.158
280.15
280.138
280.118
280.087
280.04
279.971
279.87
279.723
279.516
279.226
278.833
278.313
277.645
276.818
275.839
274.739
273.574
277.986
277.984
277.98
277.974
277.963
277.947
277.922
277.884
277.829
277.749
277.635
277.476
277.259
276.969
276.593
276.12
275.548
274.882
274.147
273.378
276.417
276.416
276.413
276.407
276.399
276.386
276.366
276.337
276.294
276.234
276.148
276.031
275.872
275.665
275.4
275.073
274.683
274.237
273.751
273.247
275.306
275.305
275.302
275.298
275.292
275.282
275.267
275.245
275.213
275.168
275.106
275.022
274.91
274.764
274.582
274.36
274.099
273.805
273.487
273.16
274.532
274.531
274.529
274.526
274.521
274.514
274.503
274.487
274.464
274.432
274.388
274.329
274.251
274.152
274.029
273.881
273.71
273.518
273.313
273.103
274.002
274.001
274
273.997
273.994
273.988
273.981
273.969
273.953
273.931
273.9
273.86
273.807
273.741
273.66
273.563
273.452
273.329
273.198
273.065
273.644
273.644
273.643
273.641
273.639
273.635
273.63
273.622
273.611
273.596
273.575
273.548
273.513
273.47
273.417
273.355
273.285
273.207
273.124
273.041
273.408
273.408
273.407
273.406
273.404
273.402
273.398
273.393
273.385
273.375
273.362
273.344
273.322
273.294
273.26
273.221
273.177
273.128
273.077
273.025
273.254
273.254
273.253
273.253
273.252
273.25
273.247
273.244
273.239
273.232
273.224
273.213
273.198
273.181
273.16
273.135
273.108
273.078
273.047
273.015
273.156
273.156
273.155
273.155
273.154
273.153
273.151
273.149
273.146
273.142
273.136
273.129
273.12
273.11
273.097
273.082
273.065
273.047
273.028
273.009
273.094
273.094
273.094
273.093
273.093
273.092
273.091
273.09
273.088
273.085
273.082
273.077
273.072
273.065
273.058
273.049
273.039
273.028
273.017
273.005
273.056
273.056
273.055
273.055
273.055
273.055
273.054
273.053
273.052
273.05
273.048
273.046
273.042
273.038
273.034
273.029
273.023
273.016
273.01
273.003
273.032
273.032
273.032
273.032
273.032
273.032
273.031
273.031
273.03
273.029
273.028
273.026
273.025
273.022
273.02
273.016
273.013
273.009
273.006
273.002
273.019
273.019
273.019
273.018
273.018
273.018
273.018
273.018
273.017
273.017
273.016
273.015
273.014
273.013
273.011
273.009
273.007
273.005
273.003
273.001
273.011
273.011
273.01
273.01
273.01
273.01
273.01
273.01
273.01
273.009
273.009
273.008
273.008
273.007
273.006
273.005
273.004
273.003
273.002
273.001
273.006
273.006
273.006
273.006
273.006
273.006
273.006
273.006
273.005
273.005
273.005
273.005
273.004
273.004
273.003
273.003
273.002
273.002
273.001
273
273.003
273.003
273.003
273.003
273.003
273.003
273.003
273.003
273.003
273.003
273.003
273.003
273.002
273.002
273.002
273.002
273.001
273.001
273.001
273
273.002
273.002
273.002
273.002
273.002
273.002
273.002
273.002
273.002
273.002
273.001
273.001
273.001
273.001
273.001
273.001
273.001
273
273
273
273.001
273.001
273.001
273.001
273.001
273.001
273.001
273.001
273.001
273.001
273.001
273.001
273.001
273.001
273.001
273
273
273
273
273
273
273
273
273
273
273
273
273
273
273
273
273
273
273
273
273
273
273
273
273
273
273
273
273
273
273
273
273
273
273
273
273
273
273
273
273
273
273
273
273
273
273
273
273
273
273
273
273
273
273
273
273
273
273
273
273
273
273
273
273
273
273
273
273
273
273
273
273
273
273
273
273
273
273
273
273
273
273
273
273
273
273
273
273
273
273
273
273
273
273
273
273
273
273
273
273
273
273
273
273
273
273
273
273
273
273
273
273
273
273
273
273
273
273
273
273
273
273
273
273
273
273
273
273
273
273
273
273
273
273
273
273
273
273
273
273
273
273
273
273
273
273
273
273
273
273
273
273
273
273
273
273
273
273
273
273
273
273
273
273
273
273
273
273
273
273
273
273
273
273
273
273
273
273
273
273
273
273
273
273
273
273
273
273
273
273
273
273
273
273
273
273
273
273
273
273
273
273
273
273
273
273
273
273
273
273
273
273
273
273
273
273
273
273
273
273
273
273
273
273
273
273
273
273
273
273
273
273
273
273
273
273
273
273
273
273
273
273
273
273
273
273
273
273
273
273
273
273
273
273
273
273
273
273
273
273
273
273
273
273
273
273
273
273
273
273
273
273
273
273
273
273
273
273
273
273
273
273
273
273
273
273
273
273
273
273
273
273
273
273
273
273
273
273
273
273
273
273
273
273
273
273
273
273
273
273
273
273
273
273
273
273
273
273
273
273
273
273
273
273
273
273
273
273
273
273
273
273
273
273
273
273
273
273
273
273
273
273
273
273
273
273
273
273
273
273
273
273
273
273
273
273
273
273
273
273
273
273
273
273
)
;

boundaryField
{
    topWall
    {
        type            zeroGradient;
    }
    bottomWall
    {
        type            codedFixedValue;
        value           uniform 363;
        name            heating;
        code            #{
            const scalar t = this->db().time().value();
            const scalar Ttemp = 273 + 10*t;
            operator==(Ttemp);
        #};
    }
    sideWallL
    {
        type            symmetry;
    }
    sideWallR
    {
        type            fixedValue;
        value           uniform 273;
    }
    frontAndBack
    {
        type            empty;
    }
}


// ************************************************************************* //
