/*--------------------------------*- C++ -*----------------------------------*\
  =========                 |
  \\      /  F ield         | OpenFOAM: The Open Source CFD Toolbox
   \\    /   O peration     | Website:  https://openfoam.org
    \\  /    A nd           | Version:  7
     \\/     M anipulation  |
\*---------------------------------------------------------------------------*/
FoamFile
{
    version     2.0;
    format      ascii;
    class       volScalarField;
    location    "15";
    object      gradTx;
}
// * * * * * * * * * * * * * * * * * * * * * * * * * * * * * * * * * * * * * //

dimensions      [0 -1 0 1 0 0 0];

internalField   nonuniform List<scalar> 
900
(
-7.87879
-24.6121
-44.4008
-69.7296
-103.834
-151.18
-218.18
-314.327
-454.072
-660.088
-969.252
-1444.32
-2198.54
-3452.95
-5686.09
-10081.2
-20049.6
-47032.6
-134176
-450358
-22.6619
-70.7674
-127.576
-200.141
-297.601
-432.497
-622.704
-894.44
-1287.15
-1861.74
-2715.15
-4007.13
-6012.28
-9226.03
-14591.3
-23998.7
-41374.9
-74748.9
-137850
-234417
-35.5505
-110.941
-199.733
-312.713
-463.734
-671.59
-962.707
-1375.2
-1965.19
-2816.99
-4059.96
-5896.92
-8653.27
-12861.7
-19404.9
-29730.6
-46069.5
-71179.1
-105772
-138838
-45.8252
-142.87
-256.733
-400.819
-592.131
-853.373
-1215.86
-1723.73
-2440.1
-3456.43
-4906.52
-6987.67
-9991.37
-14344.6
-20653
-29707
-42323.9
-58709.5
-76773.1
-89274.9
-53.0579
-165.226
-296.211
-460.839
-677.616
-970.777
-1372.97
-1928.93
-2700.46
-3773.31
-5266.26
-7342.51
-10221.7
-14187
-19571
-26684.4
-35613.6
-45786.8
-55285.1
-60378.1
-57.14
-177.698
-317.716
-492.319
-720.051
-1024.65
-1437.27
-1999.19
-2765.32
-3808.22
-5222.45
-7128.05
-9670.13
-13008.4
-17284.4
-22546.6
-28608.8
-34836.8
-39946.6
-42110
-58.2563
-180.902
-322.498
-497.557
-723.526
-1022.19
-1421.31
-1956.4
-2672.74
-3627.07
-4888.52
-6537.25
-8658.18
-11325.5
-14571.3
-18331.8
-22368.5
-26184.8
-29002.2
-29921
-56.8175
-176.16
-313.078
-480.825
-695.005
-974.599
-1343.03
-1829.2
-2468.25
-3301.81
-4376.87
-5742.32
-7441.24
-9496.77
-11889
-14522.2
-17188.2
-19542.5
-21128.9
-21494.4
-53.3734
-165.218
-292.709
-447.458
-642.848
-894.719
-1221.99
-1647.08
-2195.97
-2897.55
-3781.67
-4875.26
-6195.49
-7739.03
-9467.24
-11288.7
-13044.9
-14509.4
-15416.7
-15532.4
-48.5256
-149.972
-264.863
-403.019
-575.517
-795.107
-1076.5
-1436.44
-1893.33
-2466.2
-3172.75
-4025.81
-5028.13
-6165.16
-7396.32
-8646.81
-9803.59
-10721.5
-11245.8
-11251.3
-42.8539
-132.235
-232.816
-352.652
-500.633
-686.709
-921.972
-1218.5
-1588.83
-2044.93
-2596.4
-3247.77
-3994.83
-4820.1
-5688.17
-6542.35
-7304.96
-7884.01
-8188.32
-8149.61
-36.8644
-113.579
-199.371
-300.669
-424.422
-578.189
-770.103
-1008.63
-1302.02
-1657.4
-2079.35
-2567.97
-3116.44
-3708.37
-4315.51
-4896.81
-5399.97
-5766.96
-5943.53
-5891.61
-30.96
-95.2482
-166.713
-250.364
-351.505
-475.747
-628.914
-816.781
-1044.6
-1316.35
-1633.73
-1994.75
-2392.3
-2812.66
-3234.46
-3628.78
-3960.9
-4194.2
-4296.09
-4244.99
-25.4319
-78.1317
-136.38
-203.996
-284.946
-383.307
-503.164
-648.363
-822.132
-1026.52
-1261.65
-1524.87
-1809.84
-2105.76
-2397.03
-2663.69
-2882.86
-3031.39
-3089.57
-3044.96
-20.4649
-62.7892
-109.316
-162.902
-226.455
-302.886
-395.004
-505.316
-635.733
-787.163
-959.015
-1148.65
-1350.87
-1557.53
-1757.53
-1937.27
-2081.75
-2176.33
-2208.99
-2172.49
-16.1532
-49.4989
-85.9689
-127.661
-176.67
-235.041
-304.674
-387.169
-483.606
-594.269
-718.316
-853.445
-995.606
-1138.85
-1275.41
-1396.12
-1491.2
-1551.37
-1569.26
-1540.61
-12.5201
-38.3213
-66.405
-98.286
-135.451
-179.315
-231.143
-291.933
-362.265
-442.108
-530.613
-625.911
-724.966
-823.529
-916.249
-996.995
-1059.41
-1097.61
-1107.05
-1085.23
-9.53816
-29.1627
-50.4281
-74.4113
-102.152
-134.616
-172.632
-216.812
-267.442
-324.357
-386.81
-453.358
-521.787
-589.116
-651.7
-705.475
-746.316
-770.501
-775.215
-758.977
-7.14803
-21.833
-37.6797
-55.4428
-75.8399
-99.5205
-127.022
-158.711
-194.709
-234.815
-278.42
-324.449
-371.323
-416.981
-458.97
-494.609
-521.234
-536.489
-538.629
-526.776
-5.27324
-16.0917
-27.7208
-40.6824
-55.4653
-72.5014
-92.1344
-114.579
-139.871
-167.819
-197.953
-229.493
-261.333
-292.069
-320.061
-343.557
-360.84
-370.421
-371.217
-362.708
-3.83181
-11.6829
-20.0922
-29.4156
-39.9821
-52.0757
-65.9135
-81.6177
-99.1841
-118.45
-139.067
-160.48
-181.927
-202.462
-221.001
-236.403
-247.568
-253.555
-253.695
-247.678
-2.74406
-8.35982
-14.3548
-20.9691
-28.4212
-36.8961
-46.5292
-57.3882
-69.4525
-82.5938
-96.5596
-110.964
-125.289
-138.904
-151.098
-161.133
-168.308
-172.03
-171.884
-167.687
-1.93754
-5.89839
-10.1137
-14.7434
-19.9312
-25.7962
-32.4218
-39.8442
-48.039
-56.9097
-66.2777
-75.8787
-85.3657
-94.3222
-102.286
-108.783
-113.367
-115.666
-115.426
-112.537
-1.34942
-4.10522
-7.02975
-10.2282
-13.7942
-17.8035
-22.3072
-27.3234
-32.8299
-38.7563
-44.9792
-51.32
-57.549
-63.394
-68.5567
-72.7341
-75.6451
-77.0574
-76.8136
-74.8496
-0.927345
-2.8194
-4.82203
-7.00373
-9.42472
-12.1328
-15.1588
-18.5113
-22.172
-26.0911
-30.1847
-34.3339
-38.3882
-42.1716
-45.4929
-48.1602
-49.9969
-50.8585
-50.6484
-49.3291
-0.629021
-1.9113
-3.26522
-4.73488
-6.35866
-8.16641
-10.1765
-12.3926
-14.8006
-17.366
-20.0327
-22.7228
-25.3385
-27.767
-29.8871
-31.5777
-32.7287
-33.2507
-33.0847
-32.2087
-0.42125
-1.2793
-2.18324
-3.16119
-4.23732
-5.43013
-6.75045
-8.19945
-9.76681
-11.4292
-13.1496
-14.8775
-16.55
-18.0957
-19.438
-20.5015
-21.2177
-21.5317
-21.4076
-20.8326
-0.278593
-0.845643
-1.44178
-2.08473
-2.78958
-3.56766
-4.4253
-5.36256
-6.37215
-7.43856
-8.53769
-9.63708
-10.697
-11.6723
-12.5152
-13.179
-13.6214
-13.8088
-13.7197
-13.3465
-0.181992
-0.552166
-0.940581
-1.35829
-1.81462
-2.31645
-2.86744
-3.46723
-4.1108
-4.78802
-5.48339
-6.17634
-6.84189
-7.45189
-7.97679
-8.38774
-8.65896
-8.77003
-8.70791
-8.46835
-0.117454
-0.356206
-0.606276
-0.874485
-1.16655
-1.48661
-1.83674
-2.21649
-2.62251
-3.04825
-3.4839
-3.91653
-4.33062
-4.70877
-5.03282
-5.28517
-5.45015
-5.51544
-5.47325
-5.32115
-0.0749021
-0.227069
-0.386184
-0.556418
-0.741237
-0.943105
-1.16319
-1.4011
-1.65462
-1.91958
-2.18983
-2.45737
-2.71262
-2.94493
-3.14325
-3.29691
-3.39647
-3.43454
-3.4065
-3.31098
-0.0472061
-0.143055
-0.243127
-0.349944
-0.465589
-0.591517
-0.728379
-0.875855
-1.03252
-1.19577
-1.36178
-1.52564
-1.68151
-1.82293
-1.94323
-2.036
-2.09559
-2.11761
-2.09933
-2.03998
-0.0294064
-0.089084
-0.151302
-0.217571
-0.28913
-0.36683
-0.451028
-0.541491
-0.637315
-0.736882
-0.837859
-0.937257
-1.03155
-1.11685
-1.18917
-1.24469
-1.28006
-1.29269
-1.28098
-1.2445
-0.0181085
-0.0548407
-0.0930855
-0.13374
-0.177532
-0.224956
-0.276205
-0.331117
-0.389127
-0.449246
-0.51006
-0.569772
-0.626271
-0.677246
-0.72033
-0.753267
-0.774086
-0.781268
-0.773886
-0.751699
-0.0110248
-0.0333783
-0.0566235
-0.081287
-0.107794
-0.136428
-0.167292
-0.200278
-0.235038
-0.270974
-0.307238
-0.342762
-0.376294
-0.406472
-0.431904
-0.45127
-0.463419
-0.467468
-0.462884
-0.449533
-0.00663676
-0.0200878
-0.0340592
-0.0488573
-0.0647278
-0.0818319
-0.100224
-0.119834
-0.14045
-0.161714
-0.183126
-0.204054
-0.223766
-0.241464
-0.256338
-0.267622
-0.27465
-0.276914
-0.274107
-0.266157
-0.00395083
-0.0119551
-0.0202601
-0.0290422
-0.038442
-0.0485505
-0.059396
-0.0709333
-0.0830362
-0.0954934
-0.108011
-0.12022
-0.131696
-0.141978
-0.150597
-0.157112
-0.161142
-0.162396
-0.160701
-0.156017
-0.00232608
-0.00703699
-0.0119199
-0.0170756
-0.0225836
-0.0284947
-0.0348235
-0.041542
-0.0485753
-0.0558001
-0.0630457
-0.0700996
-0.0767169
-0.0826331
-0.0875809
-0.0913086
-0.0935991
-0.0942879
-0.0932772
-0.090546
-0.00135474
-0.00409752
-0.00693777
-0.00993236
-0.013126
-0.0165469
-0.0202022
-0.024075
-0.0281214
-0.0322702
-0.0364234
-0.0404595
-0.0442389
-0.0476114
-0.0504254
-0.0525388
-0.0538293
-0.0542042
-0.0536092
-0.0520328
-0.000780897
-0.0023614
-0.00399661
-0.00571836
-0.00755157
-0.00951163
-0.0116021
-0.0138129
-0.0161185
-0.0184784
-0.0208367
-0.0231246
-0.0252634
-0.0271684
-0.0287546
-0.0299423
-0.0306631
-0.0308655
-0.0305192
-0.0296183
-0.000446149
-0.00134887
-0.00228205
-0.00326336
-0.00430656
-0.00542005
-0.00660552
-0.00785695
-0.00915988
-0.0104912
-0.0118195
-0.0131061
-0.0143068
-0.0153745
-0.0162617
-0.0169241
-0.0173237
-0.0174321
-0.0172326
-0.0167221
-0.000253857
-0.000767352
-0.00129775
-0.00185481
-0.00244611
-0.0030762
-0.00374587
-0.0044516
-0.00518514
-0.00593345
-0.00667888
-0.00739981
-0.00807159
-0.00866792
-0.00916246
-0.00953066
-0.00975152
-0.00980932
-0.00969494
-0.00940677
-0.000146122
-0.000441608
-0.000746569
-0.00106647
-0.00140553
-0.00176623
-0.00214893
-0.00255154
-0.00296933
-0.00339485
-0.00381806
-0.00422673
-0.00460695
-0.00494391
-0.0052228
-0.00542986
-0.00555333
-0.00558445
-0.00551815
-0.00535358
-8.92341e-05
-0.000269633
-0.000455668
-0.000650581
-0.000856853
-0.00107593
-0.00130797
-0.00155167
-0.00180413
-0.00206085
-0.00231579
-0.00256158
-0.00278991
-0.00299193
-0.0031588
-0.00328234
-0.00335557
-0.0033733
-0.00333254
-0.00323284
-6.48222e-05
-0.000195837
-0.000330863
-0.000472202
-0.000621605
-0.000780081
-0.000947717
-0.00112354
-0.00130546
-0.00149022
-0.00167347
-0.00184995
-0.00201368
-0.00215836
-0.0022777
-0.00236584
-0.00241785
-0.00243003
-0.00240029
-0.0023283
)
;

boundaryField
{
    topWall
    {
        type            calculated;
        value           nonuniform List<scalar> 
20
(
-6.48222e-05
-0.000195837
-0.000330863
-0.000472202
-0.000621605
-0.000780081
-0.000947717
-0.00112354
-0.00130546
-0.00149022
-0.00167347
-0.00184995
-0.00201368
-0.00215836
-0.0022777
-0.00236584
-0.00241785
-0.00243003
-0.00240029
-0.0023283
)
;
    }
    bottomWall
    {
        type            calculated;
        value           nonuniform List<scalar> 
20
(
-7.87879
-24.6121
-44.4008
-69.7296
-103.834
-151.18
-218.18
-314.327
-454.072
-660.088
-969.252
-1444.32
-2198.54
-3452.95
-5686.09
-10081.2
-20049.6
-47032.6
-134176
-450358
)
;
    }
    sideWallL
    {
        type            symmetry;
    }
    sideWallR
    {
        type            calculated;
        value           nonuniform List<scalar> 
45
(
-699364
-289913
-152414
-92804.5
-61239.7
-42204
-29794.8
-21320.8
-15367.7
-11112.1
-8038.17
-5805.18
-4179.39
-2995.97
-2136.42
-1514.36
-1066.34
-745.531
-517.303
-356.101
-243.116
-164.569
-110.427
-73.4359
-48.3914
-31.593
-20.4324
-13.0889
-8.30427
-5.21768
-3.24639
-2.00007
-1.22009
-0.73692
-0.440676
-0.260903
-0.152932
-0.0887526
-0.0510008
-0.0290301
-0.0163896
-0.00921951
-0.0052469
-0.00316836
-0.00228182
)
;
    }
    frontAndBack
    {
        type            empty;
    }
}


// ************************************************************************* //
