/*--------------------------------*- C++ -*----------------------------------*\
  =========                 |
  \\      /  F ield         | OpenFOAM: The Open Source CFD Toolbox
   \\    /   O peration     | Website:  https://openfoam.org
    \\  /    A nd           | Version:  7
     \\/     M anipulation  |
\*---------------------------------------------------------------------------*/
FoamFile
{
    version     2.0;
    format      ascii;
    class       volScalarField;
    location    "15";
    object      gradTy;
}
// * * * * * * * * * * * * * * * * * * * * * * * * * * * * * * * * * * * * * //

dimensions      [0 -1 0 1 0 0 0];

internalField   nonuniform List<scalar> 
900
(
-133872
-133903
-133968
-134075
-134238
-134476
-134821
-135317
-136030
-137059
-138552
-140743
-144003
-148954
-156682
-169231
-190762
-230656
-312544
-502681
-113058
-113086
-113144
-113241
-113387
-113601
-113908
-114345
-114969
-115857
-117126
-118947
-121578
-125402
-130987
-139121
-150636
-165141
-174783
-136737
-94979.4
-95002.5
-95051.5
-95131.7
-95252.2
-95426.2
-95673
-96019.4
-96502.3
-97172.3
-98097
-99363.7
-101078
-103343
-106196
-109404
-111904
-110354
-95865
-49277.1
-79322.5
-79340
-79376.7
-79436.4
-79524.9
-79650.3
-79824.1
-80060.6
-80377.8
-80795.9
-81334.1
-82002.2
-82779.7
-83570.6
-84104.9
-83736.7
-81058.7
-73280.8
-55666.4
-22793.6
-65818.9
-65830.2
-65853.7
-65891.2
-65945.2
-66019.1
-66116.5
-66240.5
-66391.9
-66565.7
-66743.7
-66881.6
-66884.1
-66560.4
-65547.9
-63191.7
-58387.4
-49476.6
-34514.7
-12650.1
-54232.1
-54237.3
-54247.8
-54263.6
-54284.5
-54309.5
-54335.9
-54357.8
-54363.4
-54330.1
-54217.1
-53952.3
-53411.9
-52388.8
-50550.4
-47389.1
-42197.8
-34144.1
-22595.9
-7861.21
-44350.3
-44350
-44348.8
-44345.3
-44337.3
-44320.3
-44287.2
-44226.1
-44117.2
-43929
-43610.8
-43083.4
-42225.1
-40854.5
-38713.5
-35459.1
-30689.1
-24038.5
-15394.8
-5220.81
-35981
-35976.1
-35965.3
-35946.3
-35915.2
-35865.6
-35787.7
-35666.3
-35478.4
-35189.5
-34748.9
-34082.7
-33086.9
-31620
-29500.4
-26515.9
-22457.3
-17192.3
-10781.9
-3606.79
-28947.2
-28938.9
-28921
-28890.7
-28843.2
-28771.2
-28663.7
-28504.7
-28271
-27929.8
-27435.4
-26725.7
-25718.9
-24312.5
-22387.3
-19819.9
-16511.9
-12435.3
-7690.93
-2552.16
-23085.5
-23075
-23052.5
-23015.1
-22957.7
-22872.9
-22749.7
-22572.9
-22321.1
-21965.7
-21468.5
-20780.5
-19841
-18579.8
-16922.1
-14800.7
-12175.7
-9060.79
-5550.38
-1832.37
-18244.5
-18232.8
-18208.1
-18167.3
-18105.7
-18016.2
-17888.8
-17709.8
-17461
-17118.5
-16652.2
-16025.1
-15194.4
-14113.4
-12737.6
-11032.6
-8987.56
-6628.99
-4032.97
-1326.73
-14284.3
-14272.4
-14247.3
-14206.3
-14145
-14057.2
-13934.1
-13764.1
-13532.4
-13219.9
-12803.8
-12257.2
-11550.8
-10654.7
-9543.31
-8200.98
-6629.74
-4856.92
-2939.93
-964.696
-11076.9
-11065.4
-11041.4
-11002.5
-10944.8
-10863
-10749.9
-10596
-10389.6
-10116.2
-9758.74
-9298.46
-8715.64
-7991.86
-7113.03
-6073.38
-4879.92
-3556.26
-2144.35
-702.302
-8505.78
-8495.29
-8473.33
-8437.89
-8385.86
-8312.84
-8213
-8078.93
-7901.54
-7670.07
-7372.35
-6995.36
-6526.25
-5953.92
-5271.13
-4477
-3579.62
-2597.84
-1561.75
-510.743
-6466.54
-6457.26
-6437.91
-6406.85
-6361.57
-6298.58
-6213.31
-6100.09
-5952.11
-5761.56
-5519.86
-5218.23
-4848.44
-4403.99
-3881.53
-3282.37
-2613.96
-1890.71
-1133.94
-370.403
-4866.58
-4858.64
-4842.11
-4815.72
-4777.5
-4724.72
-4653.93
-4560.86
-4440.54
-4287.39
-4095.49
-3858.99
-3572.75
-3233.09
-2838.74
-2391.8
-1898.47
-1369.46
-819.743
-267.518
-3625.05
-3618.43
-3604.71
-3582.89
-3551.46
-3508.37
-3451.04
-3376.33
-3280.68
-3160.17
-3010.77
-2828.66
-2610.68
-2354.84
-2060.95
-1731.13
-1370.3
-986.248
-589.427
-192.208
-2672.35
-2666.98
-2655.87
-2638.26
-2613.02
-2578.65
-2533.23
-2474.52
-2400.01
-2306.97
-2192.71
-2054.78
-1891.25
-1701.13
-1484.7
-1243.85
-982.316
-705.683
-421.196
-137.261
-1949.51
-1945.24
-1936.44
-1922.54
-1902.71
-1875.85
-1840.59
-1795.35
-1738.36
-1667.78
-1581.82
-1478.92
-1357.96
-1218.47
-1060.91
-886.831
-698.992
-501.355
-298.912
-97.3576
-1407.26
-1403.94
-1397.11
-1386.36
-1371.08
-1350.5
-1323.64
-1289.39
-1246.55
-1193.87
-1130.18
-1054.51
-966.211
-865.116
-751.692
-627.147
-493.486
-353.481
-210.551
-68.5466
-1005.11
-1002.58
-997.38
-989.217
-977.666
-962.172
-942.061
-916.567
-884.871
-846.149
-799.646
-744.755
-681.117
-608.711
-527.952
-439.748
-345.529
-247.216
-147.138
-47.8829
-710.268
-708.374
-704.484
-698.395
-689.811
-678.345
-663.532
-644.853
-621.758
-593.708
-560.218
-520.919
-475.617
-424.357
-367.477
-305.642
-239.857
-171.441
-101.968
-33.1722
-496.57
-495.175
-492.315
-487.85
-481.575
-473.223
-462.482
-449.001
-432.417
-412.379
-388.58
-360.798
-328.936
-293.058
-253.426
-210.516
-165.027
-117.854
-70.0544
-22.7834
-343.458
-342.448
-340.379
-337.156
-332.64
-326.65
-318.976
-309.387
-297.643
-283.52
-266.825
-247.427
-225.28
-200.449
-173.129
-143.656
-112.507
-80.2867
-47.6993
-15.509
-235.013
-234.293
-232.819
-230.528
-227.326
-223.093
-217.689
-210.962
-202.758
-192.932
-181.367
-167.986
-152.77
-135.776
-117.143
-97.106
-75.9869
-54.1896
-32.1801
-10.4607
-159.084
-158.578
-157.544
-155.939
-153.701
-150.751
-146.998
-142.343
-136.686
-129.938
-122.025
-112.903
-102.568
-91.0646
-78.4922
-65.0097
-50.8335
-36.2306
-21.5067
-6.98977
-106.529
-106.179
-105.464
-104.355
-102.813
-100.786
-98.2147
-95.0352
-91.1847
-86.6068
-81.2573
-75.1117
-68.1716
-60.4702
-52.0768
-43.0983
-33.6781
-23.991
-14.2362
-4.62603
-70.5698
-70.3305
-69.8427
-69.0879
-68.0398
-66.6652
-64.9261
-62.7822
-60.1939
-57.1261
-53.5526
-49.4599
-44.8515
-39.7518
-34.2077
-28.2905
-22.094
-15.7317
-9.33226
-3.03203
-46.2459
-46.0847
-45.7564
-45.2492
-44.5462
-43.6262
-42.4651
-41.0376
-39.3191
-37.288
-34.9288
-32.2342
-29.2082
-25.8678
-22.2447
-18.3855
-14.3509
-10.2142
-6.05752
-1.96781
-29.98
-29.8729
-29.6549
-29.3185
-28.8531
-28.2452
-27.4797
-26.5409
-25.4136
-24.0847
-22.5451
-20.7912
-18.8262
-16.6619
-14.3192
-11.8284
-9.22839
-6.56587
-3.8929
-1.26447
-19.2264
-19.1561
-19.0132
-18.793
-18.4887
-18.092
-17.5936
-16.9837
-16.253
-15.3937
-14.4005
-13.2716
-12.0096
-10.6225
-9.12376
-7.53287
-5.87459
-4.17832
-2.47677
-0.804401
-12.1976
-12.1521
-12.0596
-11.9172
-11.7208
-11.4651
-11.1445
-10.7529
-10.2849
-9.73564
-9.10218
-8.38367
-7.58207
-6.70259
-5.75398
-4.74851
-3.70176
-2.6321
-1.55991
-0.506575
-7.65537
-7.62627
-7.56716
-7.47623
-7.35095
-7.18818
-6.98439
-6.736
-6.43965
-6.09261
-5.69313
-5.24089
-4.73726
-4.18565
-3.59157
-2.96274
-2.30884
-1.64124
-0.972496
-0.315788
-4.75314
-4.73476
-4.69743
-4.64008
-4.56115
-4.45874
-4.33075
-4.17501
-3.98953
-3.77273
-3.52363
-3.24211
-2.92913
-2.58686
-2.21876
-1.82959
-1.42534
-1.01295
-0.600113
-0.194853
-2.91961
-2.90814
-2.88486
-2.84911
-2.79997
-2.73631
-2.65685
-2.56033
-2.44557
-2.31165
-2.15804
-1.98472
-1.79232
-1.58221
-1.35654
-1.11822
-0.870892
-0.618783
-0.366538
-0.119004
-1.77422
-1.76714
-1.75279
-1.73078
-1.70055
-1.66143
-1.61267
-1.55353
-1.48333
-1.40153
-1.30785
-1.2023
-1.08531
-0.957704
-0.820811
-0.676396
-0.526652
-0.374119
-0.22158
-0.0719361
-1.06667
-1.06236
-1.05362
-1.04022
-1.02184
-0.99808
-0.968505
-0.93268
-0.890213
-0.840805
-0.784299
-0.720725
-0.650344
-0.573676
-0.491513
-0.404918
-0.315199
-0.223867
-0.132574
-0.0430376
-0.634446
-0.63185
-0.626588
-0.618527
-0.607478
-0.593211
-0.575475
-0.554018
-0.528616
-0.499103
-0.465393
-0.427515
-0.385632
-0.340058
-0.291266
-0.239887
-0.186693
-0.132574
-0.0785013
-0.0254827
-0.373292
-0.371747
-0.368616
-0.363824
-0.357259
-0.348792
-0.338276
-0.32557
-0.310547
-0.293113
-0.273225
-0.250904
-0.22625
-0.199451
-0.170786
-0.140625
-0.109419
-0.0776887
-0.045997
-0.0149306
-0.217177
-0.216268
-0.214428
-0.211612
-0.207759
-0.202793
-0.196632
-0.189196
-0.180414
-0.170235
-0.158635
-0.145631
-0.131282
-0.115699
-0.0990448
-0.0815349
-0.06343
-0.0450293
-0.0266579
-0.00865279
-0.124751
-0.124224
-0.123157
-0.121525
-0.119294
-0.11642
-0.112858
-0.108564
-0.103497
-0.0976303
-0.0909521
-0.0834725
-0.0752273
-0.0662807
-0.0567268
-0.0466885
-0.0363151
-0.0257769
-0.0152589
-0.00495265
-0.0703945
-0.0700944
-0.0694872
-0.068559
-0.0672903
-0.0656579
-0.0636365
-0.0612013
-0.0583311
-0.0550108
-0.0512347
-0.0470094
-0.0423554
-0.0373095
-0.0319248
-0.0262706
-0.0204305
-0.0145001
-0.00858286
-0.00278568
-0.0383344
-0.0381698
-0.0378367
-0.0373277
-0.0366325
-0.0357385
-0.0346322
-0.0333006
-0.0317323
-0.0299196
-0.0278597
-0.0255565
-0.0230215
-0.0202748
-0.0173455
-0.0142711
-0.0110972
-0.00787519
-0.00466114
-0.00151279
-0.0188236
-0.0187423
-0.0185778
-0.0183266
-0.0179835
-0.0175427
-0.0169974
-0.0163414
-0.0155694
-0.0146776
-0.0136648
-0.012533
-0.011288
-0.00993972
-0.00850245
-0.00699461
-0.00543843
-0.00385913
-0.00228401
-0.00074127
-0.00563465
-0.00561024
-0.00556085
-0.00548543
-0.00538247
-0.00525018
-0.00508663
-0.00488993
-0.0046585
-0.00439126
-0.00408787
-0.00374895
-0.00337623
-0.00297272
-0.00254267
-0.00209161
-0.00162617
-0.00115389
-0.000682908
-0.000221633
)
;

boundaryField
{
    topWall
    {
        type            calculated;
        value           uniform 0;
    }
    bottomWall
    {
        type            calculated;
        value           nonuniform List<scalar> 
20
(
-145006
-145038
-145105
-145215
-145384
-145631
-145988
-146504
-147246
-148320
-149886
-152197
-155663
-160991
-169475
-183735
-209800
-263934
-397930
-800636
)
;
    }
    sideWallL
    {
        type            symmetry;
    }
    sideWallR
    {
        type            calculated;
        value           nonuniform List<scalar> 
45
(
-502681
-136737
-49277.1
-22793.6
-12650.1
-7861.21
-5220.81
-3606.79
-2552.16
-1832.37
-1326.73
-964.696
-702.302
-510.743
-370.403
-267.518
-192.208
-137.261
-97.3576
-68.5466
-47.8829
-33.1722
-22.7834
-15.509
-10.4607
-6.98977
-4.62603
-3.03203
-1.96781
-1.26447
-0.804401
-0.506575
-0.315788
-0.194853
-0.119004
-0.0719361
-0.0430376
-0.0254827
-0.0149306
-0.00865279
-0.00495265
-0.00278568
-0.00151279
-0.00074127
-0.000221633
)
;
    }
    frontAndBack
    {
        type            empty;
    }
}


// ************************************************************************* //
