/*--------------------------------*- C++ -*----------------------------------*\
  =========                 |
  \\      /  F ield         | OpenFOAM: The Open Source CFD Toolbox
   \\    /   O peration     | Website:  https://openfoam.org
    \\  /    A nd           | Version:  7
     \\/     M anipulation  |
\*---------------------------------------------------------------------------*/
FoamFile
{
    version     2.0;
    format      ascii;
    class       volScalarField;
    location    "15";
    object      rhoc;
}
// * * * * * * * * * * * * * * * * * * * * * * * * * * * * * * * * * * * * * //

dimensions      [1 -3 0 0 0 0 0];

internalField   nonuniform List<scalar> 
900
(
5.8432e-16
5.84032e-16
5.83419e-16
5.82399e-16
5.80837e-16
5.78529e-16
5.75166e-16
5.70302e-16
5.63284e-16
5.53167e-16
5.38574e-16
5.17516e-16
4.87133e-16
4.43417e-16
3.81085e-16
2.94448e-16
1.82381e-16
6.58464e-17
4.68552e-18
5.64442e-22
4.30357e-18
4.29673e-18
4.28218e-18
4.25807e-18
4.2214e-18
4.16765e-18
4.09036e-18
3.98056e-18
3.82618e-18
3.61168e-18
3.31838e-18
2.92679e-18
2.42326e-18
1.81418e-18
1.14974e-18
5.45296e-19
1.51187e-19
1.43787e-20
1.37647e-22
8.82691e-27
4.35655e-20
4.34457e-20
4.31916e-20
4.27728e-20
4.21403e-20
4.1223e-20
3.99232e-20
3.81144e-20
3.56438e-20
3.23466e-20
2.80869e-20
2.28387e-20
1.68186e-20
1.06324e-20
5.28527e-21
1.78084e-21
3.14638e-22
1.86904e-23
1.83478e-25
1.73035e-28
6.46329e-22
6.4385e-22
6.38608e-22
6.30013e-22
6.17131e-22
5.98653e-22
5.72864e-22
5.37713e-22
4.91028e-22
4.31056e-22
3.5748e-22
2.72944e-22
1.84644e-22
1.04462e-22
4.52834e-23
1.31769e-23
2.1176e-24
1.44525e-25
3.29041e-27
3.51703e-29
1.47621e-23
1.46926e-23
1.45459e-23
1.43067e-23
1.39508e-23
1.34455e-23
1.27501e-23
1.18193e-23
1.06125e-23
9.10995e-24
7.33896e-24
5.4046e-24
3.50553e-24
1.90057e-24
8.01129e-25
2.38399e-25
4.45499e-26
4.70036e-27
2.86953e-28
1.63085e-29
5.36277e-25
5.33452e-25
5.27512e-25
5.17863e-25
5.03602e-25
4.83531e-25
4.56215e-25
4.20176e-25
3.7427e-25
3.18326e-25
2.54031e-25
1.85744e-25
1.20553e-25
6.66393e-26
2.98007e-26
1.01712e-26
2.5164e-27
4.48143e-28
6.48558e-29
1.06959e-29
3.15076e-26
3.13363e-26
3.0977e-26
3.03953e-26
2.95401e-26
2.83442e-26
2.67296e-26
2.46193e-26
2.19593e-26
1.87532e-26
1.51055e-26
1.12568e-26
7.57581e-27
4.47449e-27
2.24868e-27
9.36137e-28
3.20194e-28
9.33809e-29
2.60363e-29
8.32068e-30
3.00513e-27
2.98952e-27
2.95682e-27
2.90404e-27
2.82669e-27
2.71897e-27
2.57422e-27
2.38586e-27
2.14931e-27
1.86462e-27
1.5398e-27
1.19338e-27
8.54044e-28
5.54834e-28
3.22436e-28
1.66556e-28
7.737e-29
3.36697e-29
1.47689e-29
7.11036e-30
4.62056e-28
4.5994e-28
4.5551e-28
4.48372e-28
4.37932e-28
4.23424e-28
4.03957e-28
3.78637e-28
3.46777e-28
3.0821e-28
2.63669e-28
2.15112e-28
1.65762e-28
1.19627e-28
8.04646e-29
5.05772e-29
3.01363e-29
1.75125e-29
1.03233e-29
6.4235e-30
1.11895e-28
1.11479e-28
1.10609e-28
1.09207e-28
1.0716e-28
1.04317e-28
1.005e-28
9.55237e-29
8.9229e-29
8.15334e-29
7.24959e-29
6.2378e-29
5.16719e-29
4.10572e-29
3.12722e-29
2.29277e-29
1.63486e-29
1.15264e-29
8.20094e-30
6.00706e-30
4.053e-29
4.04163e-29
4.01788e-29
3.97966e-29
3.92384e-29
3.84631e-29
3.74209e-29
3.6058e-29
3.43233e-29
3.21801e-29
2.96207e-29
2.66827e-29
2.34595e-29
2.00998e-29
1.6789e-29
1.37144e-29
1.10249e-29
8.80244e-30
7.05722e-30
5.74376e-30
2.02602e-29
2.02195e-29
2.01344e-29
1.99976e-29
1.9798e-29
1.95207e-29
1.91478e-29
1.86588e-29
1.80333e-29
1.72539e-29
1.63106e-29
1.5206e-29
1.39599e-29
1.26112e-29
1.12157e-29
9.83893e-30
8.54478e-30
7.38482e-30
6.39071e-30
5.57277e-30
1.27883e-29
1.27703e-29
1.27327e-29
1.26724e-29
1.25845e-29
1.24626e-29
1.22986e-29
1.20833e-29
1.18073e-29
1.14613e-29
1.10388e-29
1.05373e-29
9.96061e-30
9.32008e-30
8.63499e-30
7.93088e-30
7.23642e-30
6.57922e-30
5.98196e-30
5.45983e-30
9.45189e-30
9.44265e-30
9.42338e-30
9.39247e-30
9.34751e-30
9.28523e-30
9.20159e-30
9.09191e-30
8.95113e-30
8.7743e-30
8.55728e-30
8.29759e-30
7.99535e-30
7.65411e-30
7.28124e-30
6.88772e-30
6.48715e-30
6.09423e-30
5.72284e-30
5.38448e-30
7.74741e-30
7.74214e-30
7.73115e-30
7.71356e-30
7.68804e-30
7.65278e-30
7.60554e-30
7.54372e-30
7.46447e-30
7.36493e-30
7.24256e-30
7.09556e-30
6.92335e-30
6.72704e-30
6.50972e-30
6.27652e-30
6.0343e-30
5.79106e-30
5.55507e-30
5.33393e-30
6.79273e-30
6.7895e-30
6.78278e-30
6.77205e-30
6.75652e-30
6.73512e-30
6.70656e-30
6.66929e-30
6.62164e-30
6.56189e-30
6.48848e-30
6.40023e-30
6.29655e-30
6.17779e-30
6.04535e-30
5.90181e-30
5.75084e-30
5.59695e-30
5.44504e-30
5.29996e-30
6.22401e-30
6.22194e-30
6.21764e-30
6.21078e-30
6.20089e-30
6.18732e-30
6.16927e-30
6.1458e-30
6.1159e-30
6.07852e-30
6.03269e-30
5.97766e-30
5.91301e-30
5.83882e-30
5.75579e-30
5.66532e-30
5.56946e-30
5.47083e-30
5.37237e-30
5.27714e-30
5.87121e-30
5.86985e-30
5.86701e-30
5.86251e-30
5.85604e-30
5.84718e-30
5.83546e-30
5.82027e-30
5.80101e-30
5.77702e-30
5.7477e-30
5.71258e-30
5.67138e-30
5.62412e-30
5.57118e-30
5.51336e-30
5.45185e-30
5.38822e-30
5.32425e-30
5.26185e-30
5.64665e-30
5.64573e-30
5.64384e-30
5.64083e-30
5.63653e-30
5.63066e-30
5.62293e-30
5.61295e-30
5.60036e-30
5.58473e-30
5.56571e-30
5.543e-30
5.51643e-30
5.486e-30
5.45194e-30
5.41473e-30
5.37507e-30
5.33392e-30
5.29238e-30
5.25165e-30
5.5015e-30
5.50088e-30
5.4996e-30
5.49758e-30
5.4947e-30
5.49079e-30
5.48564e-30
5.47905e-30
5.47075e-30
5.4605e-30
5.44808e-30
5.43331e-30
5.41608e-30
5.3964e-30
5.37441e-30
5.3504e-30
5.32481e-30
5.29823e-30
5.27133e-30
5.24487e-30
5.40692e-30
5.4065e-30
5.40564e-30
5.40428e-30
5.40234e-30
5.39973e-30
5.39631e-30
5.39194e-30
5.38646e-30
5.37974e-30
5.37162e-30
5.362e-30
5.35082e-30
5.33808e-30
5.32389e-30
5.30842e-30
5.29194e-30
5.27483e-30
5.25749e-30
5.2404e-30
5.34511e-30
5.34483e-30
5.34425e-30
5.34334e-30
5.34205e-30
5.34031e-30
5.33804e-30
5.33515e-30
5.33155e-30
5.32714e-30
5.32184e-30
5.31559e-30
5.30836e-30
5.30014e-30
5.29101e-30
5.28108e-30
5.27051e-30
5.25954e-30
5.24843e-30
5.23746e-30
5.30477e-30
5.30458e-30
5.30419e-30
5.30358e-30
5.30272e-30
5.30157e-30
5.30007e-30
5.29817e-30
5.29582e-30
5.29294e-30
5.28951e-30
5.28546e-30
5.2808e-30
5.27553e-30
5.26968e-30
5.26334e-30
5.2566e-30
5.24961e-30
5.24254e-30
5.23555e-30
5.27852e-30
5.2784e-30
5.27814e-30
5.27774e-30
5.27717e-30
5.27641e-30
5.27543e-30
5.27419e-30
5.27266e-30
5.2708e-30
5.26858e-30
5.26599e-30
5.263e-30
5.25964e-30
5.25592e-30
5.25189e-30
5.24763e-30
5.24321e-30
5.23873e-30
5.23431e-30
5.26154e-30
5.26146e-30
5.26129e-30
5.26103e-30
5.26066e-30
5.26016e-30
5.25952e-30
5.25872e-30
5.25774e-30
5.25654e-30
5.25512e-30
5.25347e-30
5.25157e-30
5.24944e-30
5.2471e-30
5.24456e-30
5.24188e-30
5.2391e-30
5.23629e-30
5.23352e-30
5.25063e-30
5.25058e-30
5.25047e-30
5.2503e-30
5.25006e-30
5.24974e-30
5.24933e-30
5.24882e-30
5.24818e-30
5.24742e-30
5.24653e-30
5.24548e-30
5.24429e-30
5.24295e-30
5.24148e-30
5.23989e-30
5.23822e-30
5.23649e-30
5.23474e-30
5.23302e-30
5.24368e-30
5.24364e-30
5.24357e-30
5.24346e-30
5.24331e-30
5.24311e-30
5.24284e-30
5.24252e-30
5.24212e-30
5.24164e-30
5.24107e-30
5.24042e-30
5.23967e-30
5.23884e-30
5.23793e-30
5.23694e-30
5.23591e-30
5.23484e-30
5.23376e-30
5.2327e-30
5.23928e-30
5.23926e-30
5.23921e-30
5.23914e-30
5.23905e-30
5.23892e-30
5.23875e-30
5.23855e-30
5.2383e-30
5.238e-30
5.23765e-30
5.23724e-30
5.23678e-30
5.23627e-30
5.2357e-30
5.2351e-30
5.23447e-30
5.23381e-30
5.23315e-30
5.2325e-30
5.23653e-30
5.23651e-30
5.23648e-30
5.23644e-30
5.23638e-30
5.2363e-30
5.2362e-30
5.23607e-30
5.23591e-30
5.23573e-30
5.23551e-30
5.23526e-30
5.23498e-30
5.23467e-30
5.23432e-30
5.23396e-30
5.23357e-30
5.23317e-30
5.23277e-30
5.23238e-30
5.23482e-30
5.23481e-30
5.23479e-30
5.23476e-30
5.23473e-30
5.23468e-30
5.23461e-30
5.23453e-30
5.23444e-30
5.23433e-30
5.23419e-30
5.23404e-30
5.23387e-30
5.23368e-30
5.23347e-30
5.23325e-30
5.23302e-30
5.23278e-30
5.23254e-30
5.2323e-30
5.23377e-30
5.23376e-30
5.23375e-30
5.23373e-30
5.23371e-30
5.23368e-30
5.23364e-30
5.23359e-30
5.23354e-30
5.23347e-30
5.23339e-30
5.2333e-30
5.23319e-30
5.23308e-30
5.23295e-30
5.23282e-30
5.23268e-30
5.23254e-30
5.2324e-30
5.23226e-30
5.23313e-30
5.23312e-30
5.23312e-30
5.23311e-30
5.23309e-30
5.23307e-30
5.23305e-30
5.23302e-30
5.23299e-30
5.23295e-30
5.2329e-30
5.23284e-30
5.23278e-30
5.23271e-30
5.23264e-30
5.23256e-30
5.23248e-30
5.2324e-30
5.23231e-30
5.23223e-30
5.23274e-30
5.23274e-30
5.23273e-30
5.23273e-30
5.23272e-30
5.23271e-30
5.2327e-30
5.23268e-30
5.23266e-30
5.23263e-30
5.2326e-30
5.23257e-30
5.23254e-30
5.2325e-30
5.23245e-30
5.23241e-30
5.23236e-30
5.23231e-30
5.23226e-30
5.23221e-30
5.23251e-30
5.23251e-30
5.23251e-30
5.2325e-30
5.2325e-30
5.23249e-30
5.23248e-30
5.23247e-30
5.23246e-30
5.23245e-30
5.23243e-30
5.23241e-30
5.23239e-30
5.23237e-30
5.23234e-30
5.23231e-30
5.23229e-30
5.23226e-30
5.23223e-30
5.2322e-30
5.23237e-30
5.23237e-30
5.23237e-30
5.23237e-30
5.23237e-30
5.23236e-30
5.23236e-30
5.23235e-30
5.23235e-30
5.23234e-30
5.23233e-30
5.23232e-30
5.2323e-30
5.23229e-30
5.23228e-30
5.23226e-30
5.23224e-30
5.23223e-30
5.23221e-30
5.2322e-30
5.23229e-30
5.23229e-30
5.23229e-30
5.23229e-30
5.23229e-30
5.23229e-30
5.23229e-30
5.23228e-30
5.23228e-30
5.23227e-30
5.23227e-30
5.23226e-30
5.23225e-30
5.23225e-30
5.23224e-30
5.23223e-30
5.23222e-30
5.23221e-30
5.2322e-30
5.23219e-30
5.23225e-30
5.23225e-30
5.23225e-30
5.23225e-30
5.23225e-30
5.23224e-30
5.23224e-30
5.23224e-30
5.23224e-30
5.23224e-30
5.23223e-30
5.23223e-30
5.23223e-30
5.23222e-30
5.23222e-30
5.23221e-30
5.23221e-30
5.2322e-30
5.2322e-30
5.23219e-30
5.23222e-30
5.23222e-30
5.23222e-30
5.23222e-30
5.23222e-30
5.23222e-30
5.23222e-30
5.23222e-30
5.23222e-30
5.23221e-30
5.23221e-30
5.23221e-30
5.23221e-30
5.23221e-30
5.2322e-30
5.2322e-30
5.2322e-30
5.23219e-30
5.23219e-30
5.23219e-30
5.23221e-30
5.23221e-30
5.23221e-30
5.23221e-30
5.23221e-30
5.23221e-30
5.2322e-30
5.2322e-30
5.2322e-30
5.2322e-30
5.2322e-30
5.2322e-30
5.2322e-30
5.2322e-30
5.2322e-30
5.23219e-30
5.23219e-30
5.23219e-30
5.23219e-30
5.23219e-30
5.2322e-30
5.2322e-30
5.2322e-30
5.2322e-30
5.2322e-30
5.2322e-30
5.2322e-30
5.2322e-30
5.2322e-30
5.2322e-30
5.2322e-30
5.23219e-30
5.23219e-30
5.23219e-30
5.23219e-30
5.23219e-30
5.23219e-30
5.23219e-30
5.23219e-30
5.23219e-30
5.23219e-30
5.23219e-30
5.23219e-30
5.23219e-30
5.23219e-30
5.23219e-30
5.23219e-30
5.23219e-30
5.23219e-30
5.23219e-30
5.23219e-30
5.23219e-30
5.23219e-30
5.23219e-30
5.23219e-30
5.23219e-30
5.23219e-30
5.23219e-30
5.23219e-30
5.23219e-30
5.23219e-30
5.23219e-30
5.23219e-30
5.23219e-30
5.23219e-30
5.23219e-30
5.23219e-30
5.23219e-30
5.23219e-30
5.23219e-30
5.23219e-30
5.23219e-30
5.23219e-30
5.23219e-30
5.23219e-30
5.23219e-30
5.23219e-30
5.23219e-30
5.23219e-30
5.23219e-30
5.23219e-30
5.23219e-30
5.23219e-30
5.23219e-30
5.23219e-30
5.23219e-30
5.23219e-30
5.23219e-30
5.23219e-30
5.23219e-30
5.23219e-30
5.23219e-30
5.23219e-30
5.23219e-30
5.23219e-30
5.23219e-30
5.23219e-30
5.23219e-30
5.23219e-30
5.23219e-30
5.23219e-30
5.23219e-30
5.23219e-30
5.23219e-30
5.23219e-30
5.23219e-30
5.23219e-30
5.23219e-30
5.23219e-30
5.23219e-30
5.23219e-30
5.23219e-30
5.23219e-30
5.23219e-30
5.23219e-30
5.23219e-30
5.23219e-30
5.23219e-30
5.23219e-30
5.23219e-30
5.23219e-30
5.23219e-30
5.23219e-30
5.23219e-30
5.23219e-30
5.23219e-30
5.23219e-30
5.23219e-30
5.23219e-30
5.23219e-30
5.23219e-30
5.23219e-30
5.23219e-30
5.23219e-30
5.23219e-30
5.23219e-30
5.23219e-30
5.23219e-30
5.23219e-30
5.23219e-30
)
;

boundaryField
{
    topWall
    {
        type            zeroGradient;
    }
    bottomWall
    {
        type            zeroGradient;
    }
    sideWallL
    {
        type            symmetry;
    }
    sideWallR
    {
        type            zeroGradient;
    }
    frontAndBack
    {
        type            empty;
    }
}


// ************************************************************************* //
