/*--------------------------------*- C++ -*----------------------------------*\
  =========                 |
  \\      /  F ield         | OpenFOAM: The Open Source CFD Toolbox
   \\    /   O peration     | Website:  https://openfoam.org
    \\  /    A nd           | Version:  7
     \\/     M anipulation  |
\*---------------------------------------------------------------------------*/
FoamFile
{
    version     2.0;
    format      ascii;
    class       volScalarField;
    location    "15";
    object      rhog;
}
// * * * * * * * * * * * * * * * * * * * * * * * * * * * * * * * * * * * * * //

dimensions      [1 -3 0 0 0 0 0];

internalField   nonuniform List<scalar> 
900
(
1.1977e-07
1.19735e-07
1.19659e-07
1.19534e-07
1.19342e-07
1.19058e-07
1.18645e-07
1.18045e-07
1.17179e-07
1.15923e-07
1.14099e-07
1.11434e-07
1.07514e-07
1.01701e-07
9.29991e-08
7.9872e-08
6.0219e-08
3.3025e-08
6.93452e-09
3.24581e-11
6.73335e-09
6.72689e-09
6.71313e-09
6.69033e-09
6.65558e-09
6.6045e-09
6.5307e-09
6.42506e-09
6.27477e-09
6.06214e-09
5.7634e-09
5.34791e-09
4.77953e-09
4.02379e-09
3.06865e-09
1.9703e-09
9.19487e-10
2.26796e-10
1.41225e-11
4.13406e-14
4.50021e-10
4.4927e-10
4.47674e-10
4.45038e-10
4.41042e-10
4.35213e-10
4.26879e-10
4.15118e-10
3.98714e-10
3.76131e-10
3.45583e-10
3.05304e-10
2.54216e-10
1.93244e-10
1.27248e-10
6.64073e-11
2.35362e-11
4.32697e-12
2.65834e-13
3.6725e-15
3.72384e-11
3.71512e-11
3.69663e-11
3.66621e-11
3.62039e-11
3.5541e-11
3.46038e-11
3.33013e-11
3.15209e-11
2.91359e-11
2.60255e-11
2.21208e-11
1.74836e-11
1.24113e-11
7.50697e-12
3.57107e-12
1.18611e-12
2.33615e-13
2.31844e-14
1.35115e-15
3.93709e-12
3.92568e-12
3.90157e-12
3.86207e-12
3.80291e-12
3.71805e-12
3.59939e-12
3.43683e-12
3.21875e-12
2.93353e-12
2.57283e-12
2.13724e-12
1.6442e-12
1.13485e-12
6.72436e-13
3.22358e-13
1.16183e-13
2.93195e-14
5.16641e-15
8.29328e-16
5.43114e-13
5.4134e-13
5.37599e-13
5.31495e-13
5.22408e-13
5.09471e-13
4.9156e-13
4.67326e-13
4.35313e-13
3.94222e-13
3.43408e-13
2.83611e-13
2.17802e-13
1.51635e-13
9.26984e-14
4.7957e-14
2.02791e-14
6.92865e-15
2.03487e-15
6.33259e-16
9.87939e-14
9.84572e-14
9.77488e-14
9.65973e-14
9.48917e-14
9.24793e-14
8.91666e-14
8.47283e-14
7.89317e-14
7.15865e-14
6.26263e-14
5.22211e-14
4.08869e-14
2.95222e-14
1.92705e-14
1.11651e-14
5.69292e-15
2.59954e-15
1.13694e-15
5.38963e-16
2.37396e-14
2.36611e-14
2.34962e-14
2.32289e-14
2.28347e-14
2.22801e-14
2.15234e-14
2.05166e-14
1.92115e-14
1.75697e-14
1.55791e-14
1.32744e-14
1.07562e-14
8.19643e-15
5.81409e-15
3.81732e-15
2.33119e-15
1.35589e-15
7.87967e-16
4.87087e-16
7.49716e-15
7.47477e-15
7.42784e-15
7.35198e-15
7.24047e-15
7.08424e-15
6.872e-15
6.59096e-15
6.22818e-15
5.77317e-15
5.22172e-15
4.58068e-15
3.87237e-15
3.13608e-15
2.42379e-15
1.78899e-15
1.27162e-15
8.86771e-16
6.23823e-16
4.56184e-16
3.07176e-15
3.06408e-15
3.04801e-15
3.02209e-15
2.98409e-15
2.93101e-15
2.85914e-15
2.76424e-15
2.64198e-15
2.48864e-15
2.30227e-15
2.08395e-15
1.83915e-15
1.5783e-15
1.31612e-15
1.0691e-15
8.51857e-16
6.73583e-16
5.36502e-16
4.3684e-16
1.59231e-15
1.58922e-15
1.58274e-15
1.57231e-15
1.55705e-15
1.5358e-15
1.50708e-15
1.46924e-15
1.42052e-15
1.35935e-15
1.28467e-15
1.19645e-15
1.09605e-15
9.8661e-16
8.72886e-16
7.60731e-16
6.56036e-16
5.6357e-16
4.86131e-16
4.24341e-16
1.00405e-15
1.00261e-15
9.99615e-16
9.94798e-16
9.87767e-16
9.77994e-16
9.64818e-16
9.47479e-16
9.25165e-16
8.9711e-16
8.62729e-16
8.21797e-16
7.74634e-16
7.22244e-16
6.66352e-16
6.09263e-16
5.53553e-16
5.01655e-16
4.55464e-16
4.161e-16
7.3483e-16
7.34087e-16
7.32537e-16
7.3005e-16
7.26428e-16
7.21404e-16
7.14646e-16
7.05767e-16
6.9435e-16
6.79986e-16
6.62333e-16
6.41199e-16
6.16617e-16
5.88926e-16
5.58804e-16
5.27242e-16
4.95447e-16
4.64687e-16
4.3611e-16
4.10597e-16
5.97387e-16
5.96968e-16
5.96093e-16
5.94693e-16
5.92658e-16
5.89842e-16
5.86064e-16
5.81112e-16
5.74753e-16
5.66755e-16
5.56915e-16
5.45094e-16
5.31259e-16
5.15526e-16
4.98181e-16
4.79683e-16
4.60634e-16
4.41714e-16
4.23602e-16
4.06895e-16
5.2121e-16
5.20957e-16
5.20431e-16
5.19589e-16
5.18369e-16
5.16686e-16
5.14435e-16
5.11492e-16
5.07721e-16
5.02986e-16
4.97162e-16
4.90157e-16
4.81931e-16
4.72523e-16
4.62061e-16
4.50775e-16
4.38978e-16
4.27052e-16
4.15397e-16
4.04397e-16
4.76383e-16
4.76223e-16
4.75891e-16
4.75361e-16
4.74595e-16
4.73542e-16
4.72138e-16
4.70308e-16
4.67971e-16
4.65043e-16
4.61448e-16
4.57125e-16
4.52045e-16
4.46218e-16
4.39707e-16
4.32633e-16
4.25168e-16
4.17532e-16
4.09965e-16
4.02709e-16
4.48863e-16
4.48759e-16
4.48542e-16
4.48198e-16
4.47701e-16
4.47021e-16
4.46117e-16
4.44944e-16
4.43451e-16
4.41587e-16
4.39304e-16
4.36565e-16
4.33347e-16
4.29653e-16
4.25518e-16
4.21007e-16
4.16221e-16
4.11288e-16
4.06354e-16
4.01571e-16
4.31471e-16
4.31401e-16
4.31257e-16
4.31029e-16
4.307e-16
4.30252e-16
4.29659e-16
4.28892e-16
4.2792e-16
4.26711e-16
4.25236e-16
4.2347e-16
4.21399e-16
4.19025e-16
4.16366e-16
4.13462e-16
4.1037e-16
4.0717e-16
4.0395e-16
4.00805e-16
4.2027e-16
4.20223e-16
4.20127e-16
4.19973e-16
4.19754e-16
4.19455e-16
4.19061e-16
4.18554e-16
4.17915e-16
4.17123e-16
4.16159e-16
4.1501e-16
4.13666e-16
4.12129e-16
4.10409e-16
4.0853e-16
4.06527e-16
4.0445e-16
4.02351e-16
4.00293e-16
4.12976e-16
4.12944e-16
4.12879e-16
4.12775e-16
4.12628e-16
4.12428e-16
4.12165e-16
4.11829e-16
4.11406e-16
4.10884e-16
4.10252e-16
4.09502e-16
4.08627e-16
4.07629e-16
4.06514e-16
4.05297e-16
4.04001e-16
4.02654e-16
4.01292e-16
3.99952e-16
4.08199e-16
4.08177e-16
4.08133e-16
4.08064e-16
4.07964e-16
4.0783e-16
4.07655e-16
4.07432e-16
4.07152e-16
4.06809e-16
4.06395e-16
4.05904e-16
4.05335e-16
4.04688e-16
4.03966e-16
4.0318e-16
4.02343e-16
4.01474e-16
4.00594e-16
3.99726e-16
4.05066e-16
4.05052e-16
4.05022e-16
4.04975e-16
4.04909e-16
4.04819e-16
4.04703e-16
4.04555e-16
4.04371e-16
4.04145e-16
4.03875e-16
4.03556e-16
4.03186e-16
4.02768e-16
4.02302e-16
4.01796e-16
4.01259e-16
4.007e-16
4.00135e-16
3.99577e-16
4.03016e-16
4.03006e-16
4.02986e-16
4.02955e-16
4.02911e-16
4.02851e-16
4.02774e-16
4.02677e-16
4.02556e-16
4.02409e-16
4.02233e-16
4.02027e-16
4.01788e-16
4.01519e-16
4.01221e-16
4.00897e-16
4.00553e-16
4.00197e-16
3.99836e-16
3.9948e-16
4.01679e-16
4.01673e-16
4.01659e-16
4.01639e-16
4.0161e-16
4.0157e-16
4.0152e-16
4.01456e-16
4.01378e-16
4.01282e-16
4.01169e-16
4.01036e-16
4.00883e-16
4.00711e-16
4.00521e-16
4.00315e-16
4.00097e-16
3.99871e-16
3.99643e-16
3.99418e-16
4.00813e-16
4.00808e-16
4.008e-16
4.00786e-16
4.00767e-16
4.00742e-16
4.00709e-16
4.00668e-16
4.00617e-16
4.00556e-16
4.00483e-16
4.00398e-16
4.00301e-16
4.00192e-16
4.00072e-16
3.99942e-16
3.99804e-16
3.99662e-16
3.99519e-16
3.99377e-16
4.00255e-16
4.00252e-16
4.00247e-16
4.00238e-16
4.00226e-16
4.00209e-16
4.00188e-16
4.00162e-16
4.00129e-16
4.0009e-16
4.00044e-16
3.9999e-16
3.99929e-16
3.9986e-16
3.99785e-16
3.99704e-16
3.99618e-16
3.99529e-16
3.9944e-16
3.99352e-16
3.99899e-16
3.99897e-16
3.99894e-16
3.99888e-16
3.9988e-16
3.9987e-16
3.99856e-16
3.99839e-16
3.99819e-16
3.99794e-16
3.99765e-16
3.99731e-16
3.99693e-16
3.9965e-16
3.99603e-16
3.99553e-16
3.995e-16
3.99445e-16
3.9939e-16
3.99335e-16
3.99674e-16
3.99673e-16
3.9967e-16
3.99667e-16
3.99662e-16
3.99655e-16
3.99647e-16
3.99636e-16
3.99623e-16
3.99608e-16
3.9959e-16
3.99569e-16
3.99545e-16
3.99519e-16
3.9949e-16
3.99459e-16
3.99426e-16
3.99392e-16
3.99359e-16
3.99325e-16
3.99532e-16
3.99532e-16
3.9953e-16
3.99528e-16
3.99525e-16
3.99521e-16
3.99515e-16
3.99509e-16
3.99501e-16
3.99491e-16
3.9948e-16
3.99467e-16
3.99453e-16
3.99437e-16
3.99419e-16
3.994e-16
3.9938e-16
3.9936e-16
3.99339e-16
3.99319e-16
3.99445e-16
3.99444e-16
3.99443e-16
3.99442e-16
3.9944e-16
3.99437e-16
3.99434e-16
3.9943e-16
3.99425e-16
3.99419e-16
3.99412e-16
3.99405e-16
3.99396e-16
3.99386e-16
3.99375e-16
3.99364e-16
3.99352e-16
3.9934e-16
3.99327e-16
3.99315e-16
3.99391e-16
3.9939e-16
3.9939e-16
3.99389e-16
3.99388e-16
3.99386e-16
3.99384e-16
3.99382e-16
3.99379e-16
3.99375e-16
3.99371e-16
3.99366e-16
3.99361e-16
3.99355e-16
3.99349e-16
3.99342e-16
3.99335e-16
3.99327e-16
3.9932e-16
3.99313e-16
3.99358e-16
3.99357e-16
3.99357e-16
3.99357e-16
3.99356e-16
3.99355e-16
3.99354e-16
3.99352e-16
3.9935e-16
3.99348e-16
3.99346e-16
3.99343e-16
3.9934e-16
3.99336e-16
3.99332e-16
3.99328e-16
3.99324e-16
3.9932e-16
3.99315e-16
3.99311e-16
3.99338e-16
3.99338e-16
3.99337e-16
3.99337e-16
3.99337e-16
3.99336e-16
3.99335e-16
3.99334e-16
3.99333e-16
3.99332e-16
3.99331e-16
3.99329e-16
3.99327e-16
3.99325e-16
3.99323e-16
3.9932e-16
3.99318e-16
3.99315e-16
3.99313e-16
3.9931e-16
3.99326e-16
3.99326e-16
3.99326e-16
3.99325e-16
3.99325e-16
3.99325e-16
3.99324e-16
3.99324e-16
3.99323e-16
3.99323e-16
3.99322e-16
3.99321e-16
3.9932e-16
3.99318e-16
3.99317e-16
3.99316e-16
3.99314e-16
3.99313e-16
3.99311e-16
3.9931e-16
3.99319e-16
3.99319e-16
3.99319e-16
3.99319e-16
3.99318e-16
3.99318e-16
3.99318e-16
3.99318e-16
3.99317e-16
3.99317e-16
3.99316e-16
3.99316e-16
3.99315e-16
3.99314e-16
3.99314e-16
3.99313e-16
3.99312e-16
3.99311e-16
3.9931e-16
3.9931e-16
3.99315e-16
3.99315e-16
3.99315e-16
3.99315e-16
3.99314e-16
3.99314e-16
3.99314e-16
3.99314e-16
3.99314e-16
3.99314e-16
3.99313e-16
3.99313e-16
3.99313e-16
3.99312e-16
3.99312e-16
3.99311e-16
3.99311e-16
3.9931e-16
3.9931e-16
3.99309e-16
3.99312e-16
3.99312e-16
3.99312e-16
3.99312e-16
3.99312e-16
3.99312e-16
3.99312e-16
3.99312e-16
3.99312e-16
3.99312e-16
3.99311e-16
3.99311e-16
3.99311e-16
3.99311e-16
3.99311e-16
3.9931e-16
3.9931e-16
3.9931e-16
3.99309e-16
3.99309e-16
3.99311e-16
3.99311e-16
3.99311e-16
3.99311e-16
3.99311e-16
3.99311e-16
3.99311e-16
3.99311e-16
3.99311e-16
3.99311e-16
3.9931e-16
3.9931e-16
3.9931e-16
3.9931e-16
3.9931e-16
3.9931e-16
3.9931e-16
3.99309e-16
3.99309e-16
3.99309e-16
3.9931e-16
3.9931e-16
3.9931e-16
3.9931e-16
3.9931e-16
3.9931e-16
3.9931e-16
3.9931e-16
3.9931e-16
3.9931e-16
3.9931e-16
3.9931e-16
3.9931e-16
3.9931e-16
3.9931e-16
3.99309e-16
3.99309e-16
3.99309e-16
3.99309e-16
3.99309e-16
3.9931e-16
3.9931e-16
3.9931e-16
3.9931e-16
3.9931e-16
3.9931e-16
3.9931e-16
3.9931e-16
3.9931e-16
3.9931e-16
3.9931e-16
3.99309e-16
3.99309e-16
3.99309e-16
3.99309e-16
3.99309e-16
3.99309e-16
3.99309e-16
3.99309e-16
3.99309e-16
3.99309e-16
3.99309e-16
3.99309e-16
3.99309e-16
3.99309e-16
3.99309e-16
3.99309e-16
3.99309e-16
3.99309e-16
3.99309e-16
3.99309e-16
3.99309e-16
3.99309e-16
3.99309e-16
3.99309e-16
3.99309e-16
3.99309e-16
3.99309e-16
3.99309e-16
3.99309e-16
3.99309e-16
3.99309e-16
3.99309e-16
3.99309e-16
3.99309e-16
3.99309e-16
3.99309e-16
3.99309e-16
3.99309e-16
3.99309e-16
3.99309e-16
3.99309e-16
3.99309e-16
3.99309e-16
3.99309e-16
3.99309e-16
3.99309e-16
3.99309e-16
3.99309e-16
3.99309e-16
3.99309e-16
3.99309e-16
3.99309e-16
3.99309e-16
3.99309e-16
3.99309e-16
3.99309e-16
3.99309e-16
3.99309e-16
3.99309e-16
3.99309e-16
3.99309e-16
3.99309e-16
3.99309e-16
3.99309e-16
3.99309e-16
3.99309e-16
3.99309e-16
3.99309e-16
3.99309e-16
3.99309e-16
3.99309e-16
3.99309e-16
3.99309e-16
3.99309e-16
3.99309e-16
3.99309e-16
3.99309e-16
3.99309e-16
3.99309e-16
3.99309e-16
3.99309e-16
3.99309e-16
3.99309e-16
3.99309e-16
3.99309e-16
3.99309e-16
3.99309e-16
3.99309e-16
3.99309e-16
3.99309e-16
3.99309e-16
3.99309e-16
3.99309e-16
3.99309e-16
3.99309e-16
3.99309e-16
3.99309e-16
3.99309e-16
3.99309e-16
3.99309e-16
3.99309e-16
3.99309e-16
3.99309e-16
3.99309e-16
3.99309e-16
3.99309e-16
3.99309e-16
3.99309e-16
3.99309e-16
)
;

boundaryField
{
    topWall
    {
        type            calculated;
        value           uniform 0;
    }
    bottomWall
    {
        type            zeroGradient;
    }
    sideWallL
    {
        type            symmetry;
    }
    sideWallR
    {
        type            calculated;
        value           uniform 0;
    }
    frontAndBack
    {
        type            empty;
    }
}


// ************************************************************************* //
