/*--------------------------------*- C++ -*----------------------------------*\
  =========                 |
  \\      /  F ield         | OpenFOAM: The Open Source CFD Toolbox
   \\    /   O peration     | Website:  https://openfoam.org
    \\  /    A nd           | Version:  7
     \\/     M anipulation  |
\*---------------------------------------------------------------------------*/
FoamFile
{
    version     2.0;
    format      ascii;
    class       volScalarField;
    location    "15";
    object      rhois;
}
// * * * * * * * * * * * * * * * * * * * * * * * * * * * * * * * * * * * * * //

dimensions      [1 -3 0 0 0 0 0];

internalField   nonuniform List<scalar> 
900
(
9.67517e-06
9.67318e-06
9.66895e-06
9.66191e-06
9.65109e-06
9.63505e-06
9.61158e-06
9.57744e-06
9.5278e-06
9.45548e-06
9.34965e-06
9.19371e-06
8.96176e-06
8.61235e-06
8.0771e-06
7.24011e-06
5.90731e-06
3.83009e-06
1.24226e-06
2.63378e-08
1.17918e-06
1.1784e-06
1.17673e-06
1.17395e-06
1.16971e-06
1.16344e-06
1.15433e-06
1.14119e-06
1.12233e-06
1.09534e-06
1.05683e-06
1.00214e-06
9.25079e-07
8.18129e-07
6.73964e-07
4.90644e-07
2.84028e-07
1.04086e-07
1.42967e-08
2.34606e-10
1.6406e-07
1.63871e-07
1.63468e-07
1.62802e-07
1.61787e-07
1.60297e-07
1.58149e-07
1.55088e-07
1.50762e-07
1.447e-07
1.36303e-07
1.24858e-07
1.09647e-07
9.02266e-08
6.70086e-08
4.21539e-08
2.01293e-08
6.03777e-09
8.43473e-10
4.42071e-11
2.68552e-08
2.6812e-08
2.67202e-08
2.65687e-08
2.63392e-08
2.60046e-08
2.55268e-08
2.48542e-08
2.39189e-08
2.2637e-08
2.09122e-08
1.86516e-08
1.58001e-08
1.24033e-08
8.69252e-09
5.14073e-09
2.36193e-09
7.55314e-10
1.52668e-10
2.23361e-11
5.29643e-09
5.28598e-09
5.26383e-09
5.22738e-09
5.17245e-09
5.09295e-09
4.98049e-09
4.82408e-09
4.60997e-09
4.32229e-09
3.94495e-09
3.46601e-09
2.88549e-09
2.22622e-09
1.54372e-09
9.2382e-10
4.54494e-10
1.76165e-10
5.4444e-11
1.598e-11
1.27968e-09
1.27686e-09
1.27092e-09
1.26117e-09
1.24655e-09
1.22553e-09
1.19606e-09
1.15552e-09
1.10077e-09
1.0284e-09
9.35321e-10
8.19863e-10
6.83438e-10
5.32473e-10
3.79508e-10
2.41573e-10
1.34521e-10
6.53739e-11
2.90063e-11
1.32568e-11
3.82493e-10
3.81632e-10
3.79815e-10
3.76846e-10
3.72416e-10
3.66086e-10
3.57277e-10
3.45269e-10
3.29224e-10
3.08275e-10
2.81692e-10
2.49173e-10
2.11228e-10
1.69581e-10
1.27307e-10
8.83926e-11
5.65563e-11
3.37856e-11
1.96214e-11
1.18429e-11
1.41869e-10
1.41567e-10
1.4093e-10
1.39893e-10
1.38353e-10
1.36163e-10
1.33135e-10
1.29037e-10
1.23606e-10
1.16573e-10
1.07721e-10
9.69615e-11
8.44449e-11
7.0655e-11
5.64422e-11
4.29136e-11
3.11608e-11
2.19143e-11
1.53257e-11
1.10264e-11
6.49518e-11
6.48307e-11
6.45759e-11
6.41621e-11
6.35493e-11
6.26824e-11
6.14898e-11
5.98848e-11
5.77696e-11
5.50455e-11
5.16306e-11
4.74865e-11
4.26516e-11
3.72713e-11
3.161e-11
2.60247e-11
2.08948e-11
1.65261e-11
1.30734e-11
1.05242e-11
3.60925e-11
3.60376e-11
3.59224e-11
3.57356e-11
3.54599e-11
3.50715e-11
3.45394e-11
3.38265e-11
3.2891e-11
3.16903e-11
3.01876e-11
2.83622e-11
2.6221e-11
2.381e-11
2.12201e-11
1.85813e-11
1.60433e-11
1.37447e-11
1.17838e-11
1.02029e-11
2.36464e-11
2.36187e-11
2.35607e-11
2.34669e-11
2.33288e-11
2.3135e-11
2.28705e-11
2.25175e-11
2.20559e-11
2.14648e-11
2.07257e-11
1.98264e-11
1.87655e-11
1.7558e-11
1.62379e-11
1.48575e-11
1.34816e-11
1.21771e-11
1.10013e-11
9.99206e-12
1.76211e-11
1.76059e-11
1.75739e-11
1.75224e-11
1.74469e-11
1.73411e-11
1.71974e-11
1.70062e-11
1.6757e-11
1.64387e-11
1.60411e-11
1.55566e-11
1.49826e-11
1.43238e-11
1.35939e-11
1.28156e-11
1.20194e-11
1.12392e-11
1.05078e-11
9.85154e-12
1.44232e-11
1.44142e-11
1.43954e-11
1.4365e-11
1.43206e-11
1.42587e-11
1.41748e-11
1.40637e-11
1.39194e-11
1.37356e-11
1.35063e-11
1.32269e-11
1.2895e-11
1.2512e-11
1.20836e-11
1.16207e-11
1.11383e-11
1.06546e-11
1.01885e-11
9.75698e-12
1.26018e-11
1.25962e-11
1.25844e-11
1.25655e-11
1.2538e-11
1.24997e-11
1.24481e-11
1.23801e-11
1.22919e-11
1.21801e-11
1.20409e-11
1.18714e-11
1.167e-11
1.14369e-11
1.11747e-11
1.08889e-11
1.05873e-11
1.02802e-11
9.9785e-12
9.69302e-12
1.15085e-11
1.15048e-11
1.14972e-11
1.1485e-11
1.14672e-11
1.14427e-11
1.14096e-11
1.13663e-11
1.13104e-11
1.12397e-11
1.11521e-11
1.10456e-11
1.09192e-11
1.07728e-11
1.06076e-11
1.04265e-11
1.02341e-11
1.00361e-11
9.83902e-12
9.64967e-12
1.0827e-11
1.08245e-11
1.08194e-11
1.08113e-11
1.07996e-11
1.07833e-11
1.07617e-11
1.07333e-11
1.06969e-11
1.06511e-11
1.05946e-11
1.05261e-11
1.04449e-11
1.03509e-11
1.02449e-11
1.01284e-11
1.0004e-11
9.87517e-12
9.74587e-12
9.62031e-12
1.03909e-11
1.03892e-11
1.03858e-11
1.03803e-11
1.03723e-11
1.03615e-11
1.0347e-11
1.03281e-11
1.03041e-11
1.02739e-11
1.02368e-11
1.01921e-11
1.01392e-11
1.00782e-11
1.00093e-11
9.93364e-12
9.85267e-12
9.76848e-12
9.68354e-12
9.60047e-12
1.0107e-11
1.01058e-11
1.01035e-11
1.00997e-11
1.00943e-11
1.0087e-11
1.00772e-11
1.00646e-11
1.00485e-11
1.00285e-11
1.00039e-11
9.97447e-12
9.9398e-12
9.89985e-12
9.85489e-12
9.80551e-12
9.75265e-12
9.69759e-12
9.64186e-12
9.58711e-12
9.92023e-12
9.91945e-12
9.91783e-12
9.91527e-12
9.91159e-12
9.90658e-12
9.89998e-12
9.89147e-12
9.88071e-12
9.86735e-12
9.85108e-12
9.83161e-12
9.8088e-12
9.78261e-12
9.7532e-12
9.72095e-12
9.68646e-12
9.65051e-12
9.61407e-12
9.57815e-12
9.79678e-12
9.79624e-12
9.79513e-12
9.79338e-12
9.79087e-12
9.78747e-12
9.78301e-12
9.77728e-12
9.77008e-12
9.76118e-12
9.75039e-12
9.73754e-12
9.72254e-12
9.70538e-12
9.68618e-12
9.66516e-12
9.64272e-12
9.61933e-12
9.5956e-12
9.57219e-12
9.71507e-12
9.7147e-12
9.71394e-12
9.71275e-12
9.71105e-12
9.70875e-12
9.70574e-12
9.70191e-12
9.6971e-12
9.69119e-12
9.68406e-12
9.67561e-12
9.66578e-12
9.65458e-12
9.64209e-12
9.62845e-12
9.6139e-12
9.59876e-12
9.58341e-12
9.56824e-12
9.66108e-12
9.66083e-12
9.66032e-12
9.65951e-12
9.65837e-12
9.65682e-12
9.65481e-12
9.65225e-12
9.64907e-12
9.64517e-12
9.64048e-12
9.63495e-12
9.62855e-12
9.62127e-12
9.61319e-12
9.60438e-12
9.59501e-12
9.58527e-12
9.5754e-12
9.56564e-12
9.62556e-12
9.62539e-12
9.62505e-12
9.62451e-12
9.62374e-12
9.62271e-12
9.62138e-12
9.61969e-12
9.61759e-12
9.61503e-12
9.61197e-12
9.60838e-12
9.60424e-12
9.59954e-12
9.59434e-12
9.5887e-12
9.5827e-12
9.57648e-12
9.57017e-12
9.56394e-12
9.60232e-12
9.60221e-12
9.60198e-12
9.60162e-12
9.60111e-12
9.60043e-12
9.59956e-12
9.59845e-12
9.59708e-12
9.59542e-12
9.59344e-12
9.59112e-12
9.58846e-12
9.58546e-12
9.58214e-12
9.57854e-12
9.57473e-12
9.57079e-12
9.56679e-12
9.56284e-12
9.58722e-12
9.58715e-12
9.587e-12
9.58676e-12
9.58643e-12
9.58598e-12
9.58541e-12
9.58469e-12
9.58381e-12
9.58274e-12
9.58147e-12
9.57999e-12
9.57829e-12
9.57638e-12
9.57428e-12
9.57201e-12
9.56961e-12
9.56713e-12
9.56462e-12
9.56214e-12
9.57749e-12
9.57744e-12
9.57734e-12
9.57719e-12
9.57697e-12
9.57669e-12
9.57632e-12
9.57586e-12
9.57529e-12
9.57461e-12
9.5738e-12
9.57286e-12
9.57179e-12
9.57059e-12
9.56927e-12
9.56785e-12
9.56635e-12
9.5648e-12
9.56323e-12
9.56169e-12
9.57127e-12
9.57124e-12
9.57117e-12
9.57107e-12
9.57094e-12
9.57075e-12
9.57052e-12
9.57022e-12
9.56986e-12
9.56943e-12
9.56892e-12
9.56834e-12
9.56767e-12
9.56692e-12
9.5661e-12
9.56521e-12
9.56428e-12
9.56333e-12
9.56236e-12
9.5614e-12
9.56733e-12
9.56731e-12
9.56727e-12
9.5672e-12
9.56712e-12
9.567e-12
9.56685e-12
9.56667e-12
9.56644e-12
9.56617e-12
9.56585e-12
9.56549e-12
9.56507e-12
9.56461e-12
9.5641e-12
9.56356e-12
9.56299e-12
9.5624e-12
9.56181e-12
9.56122e-12
9.56485e-12
9.56484e-12
9.56482e-12
9.56478e-12
9.56472e-12
9.56465e-12
9.56456e-12
9.56444e-12
9.5643e-12
9.56413e-12
9.56394e-12
9.56371e-12
9.56346e-12
9.56317e-12
9.56287e-12
9.56253e-12
9.56219e-12
9.56183e-12
9.56147e-12
9.56111e-12
9.56332e-12
9.56331e-12
9.56329e-12
9.56327e-12
9.56323e-12
9.56319e-12
9.56313e-12
9.56306e-12
9.56297e-12
9.56287e-12
9.56275e-12
9.56262e-12
9.56246e-12
9.56229e-12
9.5621e-12
9.5619e-12
9.56169e-12
9.56148e-12
9.56126e-12
9.56105e-12
9.56237e-12
9.56236e-12
9.56235e-12
9.56234e-12
9.56232e-12
9.56229e-12
9.56226e-12
9.56221e-12
9.56216e-12
9.5621e-12
9.56203e-12
9.56194e-12
9.56185e-12
9.56175e-12
9.56163e-12
9.56151e-12
9.56139e-12
9.56126e-12
9.56113e-12
9.561e-12
9.56179e-12
9.56179e-12
9.56178e-12
9.56177e-12
9.56176e-12
9.56174e-12
9.56172e-12
9.5617e-12
9.56167e-12
9.56163e-12
9.56159e-12
9.56154e-12
9.56148e-12
9.56142e-12
9.56135e-12
9.56128e-12
9.56121e-12
9.56113e-12
9.56105e-12
9.56098e-12
9.56144e-12
9.56144e-12
9.56144e-12
9.56143e-12
9.56142e-12
9.56141e-12
9.5614e-12
9.56139e-12
9.56137e-12
9.56135e-12
9.56132e-12
9.56129e-12
9.56126e-12
9.56122e-12
9.56118e-12
9.56114e-12
9.5611e-12
9.56105e-12
9.56101e-12
9.56096e-12
9.56123e-12
9.56123e-12
9.56123e-12
9.56123e-12
9.56122e-12
9.56122e-12
9.56121e-12
9.5612e-12
9.56119e-12
9.56118e-12
9.56116e-12
9.56115e-12
9.56113e-12
9.5611e-12
9.56108e-12
9.56106e-12
9.56103e-12
9.56101e-12
9.56098e-12
9.56095e-12
9.56111e-12
9.56111e-12
9.56111e-12
9.56111e-12
9.56111e-12
9.5611e-12
9.5611e-12
9.56109e-12
9.56109e-12
9.56108e-12
9.56107e-12
9.56106e-12
9.56105e-12
9.56104e-12
9.56102e-12
9.56101e-12
9.56099e-12
9.56098e-12
9.56096e-12
9.56095e-12
9.56104e-12
9.56104e-12
9.56104e-12
9.56104e-12
9.56104e-12
9.56103e-12
9.56103e-12
9.56103e-12
9.56102e-12
9.56102e-12
9.56101e-12
9.56101e-12
9.561e-12
9.561e-12
9.56099e-12
9.56098e-12
9.56097e-12
9.56096e-12
9.56095e-12
9.56095e-12
9.561e-12
9.561e-12
9.561e-12
9.561e-12
9.561e-12
9.56099e-12
9.56099e-12
9.56099e-12
9.56099e-12
9.56099e-12
9.56098e-12
9.56098e-12
9.56098e-12
9.56097e-12
9.56097e-12
9.56096e-12
9.56096e-12
9.56095e-12
9.56095e-12
9.56094e-12
9.56097e-12
9.56097e-12
9.56097e-12
9.56097e-12
9.56097e-12
9.56097e-12
9.56097e-12
9.56097e-12
9.56097e-12
9.56097e-12
9.56097e-12
9.56096e-12
9.56096e-12
9.56096e-12
9.56096e-12
9.56095e-12
9.56095e-12
9.56095e-12
9.56095e-12
9.56094e-12
9.56096e-12
9.56096e-12
9.56096e-12
9.56096e-12
9.56096e-12
9.56096e-12
9.56096e-12
9.56096e-12
9.56096e-12
9.56096e-12
9.56096e-12
9.56095e-12
9.56095e-12
9.56095e-12
9.56095e-12
9.56095e-12
9.56095e-12
9.56095e-12
9.56094e-12
9.56094e-12
9.56095e-12
9.56095e-12
9.56095e-12
9.56095e-12
9.56095e-12
9.56095e-12
9.56095e-12
9.56095e-12
9.56095e-12
9.56095e-12
9.56095e-12
9.56095e-12
9.56095e-12
9.56095e-12
9.56095e-12
9.56095e-12
9.56095e-12
9.56094e-12
9.56094e-12
9.56094e-12
9.56095e-12
9.56095e-12
9.56095e-12
9.56095e-12
9.56095e-12
9.56095e-12
9.56095e-12
9.56095e-12
9.56095e-12
9.56095e-12
9.56095e-12
9.56095e-12
9.56095e-12
9.56095e-12
9.56094e-12
9.56094e-12
9.56094e-12
9.56094e-12
9.56094e-12
9.56094e-12
9.56095e-12
9.56095e-12
9.56095e-12
9.56095e-12
9.56095e-12
9.56095e-12
9.56094e-12
9.56094e-12
9.56094e-12
9.56094e-12
9.56094e-12
9.56094e-12
9.56094e-12
9.56094e-12
9.56094e-12
9.56094e-12
9.56094e-12
9.56094e-12
9.56094e-12
9.56094e-12
9.56094e-12
9.56094e-12
9.56094e-12
9.56094e-12
9.56094e-12
9.56094e-12
9.56094e-12
9.56094e-12
9.56094e-12
9.56094e-12
9.56094e-12
9.56094e-12
9.56094e-12
9.56094e-12
9.56094e-12
9.56094e-12
9.56094e-12
9.56094e-12
9.56094e-12
9.56094e-12
9.56094e-12
9.56094e-12
9.56094e-12
9.56094e-12
9.56094e-12
9.56094e-12
9.56094e-12
9.56094e-12
9.56094e-12
9.56094e-12
9.56094e-12
9.56094e-12
9.56094e-12
9.56094e-12
9.56094e-12
9.56094e-12
9.56094e-12
9.56094e-12
9.56094e-12
9.56094e-12
9.56094e-12
9.56094e-12
9.56094e-12
9.56094e-12
9.56094e-12
9.56094e-12
9.56094e-12
9.56094e-12
9.56094e-12
9.56094e-12
9.56094e-12
9.56094e-12
9.56094e-12
9.56094e-12
9.56094e-12
9.56094e-12
9.56094e-12
9.56094e-12
9.56094e-12
9.56094e-12
)
;

boundaryField
{
    topWall
    {
        type            zeroGradient;
    }
    bottomWall
    {
        type            zeroGradient;
    }
    sideWallL
    {
        type            symmetry;
    }
    sideWallR
    {
        type            zeroGradient;
    }
    frontAndBack
    {
        type            empty;
    }
}


// ************************************************************************* //
