/*--------------------------------*- C++ -*----------------------------------*\
  =========                 |
  \\      /  F ield         | OpenFOAM: The Open Source CFD Toolbox
   \\    /   O peration     | Website:  https://openfoam.org
    \\  /    A nd           | Version:  7
     \\/     M anipulation  |
\*---------------------------------------------------------------------------*/
FoamFile
{
    version     2.0;
    format      ascii;
    class       volScalarField;
    location    "15";
    object      rhot2;
}
// * * * * * * * * * * * * * * * * * * * * * * * * * * * * * * * * * * * * * //

dimensions      [1 -3 0 0 0 0 0];

internalField   nonuniform List<scalar> 
900
(
6.3046e-14
6.30111e-14
6.29366e-14
6.28129e-14
6.26237e-14
6.23443e-14
6.19379e-14
6.13512e-14
6.05067e-14
5.92923e-14
5.75472e-14
5.50408e-14
5.14485e-14
4.6329e-14
3.91348e-14
2.93658e-14
1.72294e-14
5.54143e-15
2.90817e-16
1.16722e-20
2.71455e-16
2.70966e-16
2.69928e-16
2.68211e-16
2.65602e-16
2.61788e-16
2.5632e-16
2.48582e-16
2.3776e-16
2.22828e-16
2.02606e-16
1.75974e-16
1.42396e-16
1.02941e-16
6.17526e-17
2.67733e-17
6.35697e-18
4.53265e-19
2.41339e-21
4.13427e-26
1.62537e-18
1.62028e-18
1.60951e-18
1.59179e-18
1.56509e-18
1.5265e-18
1.47207e-18
1.3968e-18
1.29486e-18
1.16038e-18
9.89426e-19
7.83558e-19
5.55012e-19
3.31084e-19
1.50659e-19
4.42264e-20
6.26106e-21
2.57508e-22
1.3513e-24
4.43953e-28
1.46169e-20
1.45528e-20
1.44175e-20
1.41961e-20
1.38654e-20
1.33931e-20
1.27382e-20
1.1853e-20
1.06909e-20
9.2215e-21
7.45806e-21
5.49343e-21
3.52865e-21
1.85153e-21
7.18617e-22
1.77458e-22
2.22977e-23
1.05057e-24
1.37778e-26
6.87964e-29
2.09581e-22
2.08447e-22
2.06058e-22
2.02172e-22
1.96414e-22
1.88285e-22
1.77182e-22
1.62476e-22
1.43675e-22
1.20712e-22
9.43537e-23
6.65944e-23
4.06834e-23
2.02677e-23
7.5792e-24
1.90382e-24
2.80174e-25
2.12031e-26
8.28249e-28
2.77351e-29
4.98652e-24
4.95616e-24
4.89241e-24
4.78918e-24
4.63732e-24
4.42495e-24
4.13842e-24
3.76481e-24
3.29636e-24
2.73756e-24
2.11367e-24
1.47659e-24
8.99995e-25
4.56371e-25
1.81384e-25
5.27597e-26
1.05402e-26
1.42043e-27
1.45804e-28
1.67915e-29
2.00972e-25
1.99699e-25
1.97032e-25
1.92732e-25
1.86439e-25
1.777e-25
1.66011e-25
1.50922e-25
1.32215e-25
1.10162e-25
8.58022e-26
6.1093e-26
3.86677e-26
2.10383e-26
9.48402e-27
3.42604e-27
9.77686e-28
2.28259e-28
4.94668e-29
1.24391e-29
1.37804e-26
1.3696e-26
1.35196e-26
1.32358e-26
1.28221e-26
1.225e-26
1.14885e-26
1.05099e-26
9.30087e-27
7.877e-27
6.29796e-27
4.67552e-27
3.16139e-27
1.90727e-27
1.00782e-27
4.61874e-28
1.85447e-28
6.8208e-29
2.50794e-29
1.0303e-29
1.59338e-27
1.58463e-27
1.56635e-27
1.53699e-27
1.49428e-27
1.43534e-27
1.35696e-27
1.25624e-27
1.13146e-27
9.83418e-28
8.16823e-28
6.41157e-28
4.70039e-28
3.18395e-28
1.9793e-28
1.13106e-28
6.03507e-29
3.1103e-29
1.62749e-29
9.11902e-30
3.02925e-28
3.01543e-28
2.98658e-28
2.94029e-28
2.87298e-28
2.7801e-28
2.65648e-28
2.49708e-28
2.29826e-28
2.05946e-28
1.78529e-28
1.48692e-28
1.18217e-28
8.92885e-29
6.3986e-29
4.37064e-29
2.88138e-29
1.87204e-29
1.23097e-29
8.41179e-30
8.99766e-29
8.96593e-29
8.8997e-29
8.79349e-29
8.63908e-29
8.42586e-29
8.14146e-29
7.7731e-29
7.3099e-29
6.74621e-29
6.08559e-29
5.34458e-29
4.55427e-29
3.75801e-29
3.00422e-29
2.33583e-29
1.78065e-29
1.34687e-29
1.02539e-29
7.96882e-30
3.85824e-29
3.84829e-29
3.82753e-29
3.79425e-29
3.74588e-29
3.67905e-29
3.58974e-29
3.47361e-29
3.32656e-29
3.14558e-29
2.92983e-29
2.68176e-29
2.40795e-29
2.11916e-29
1.82915e-29
1.55253e-29
1.30201e-29
1.08621e-29
9.08638e-30
7.68279e-30
2.17946e-29
2.17549e-29
2.1672e-29
2.15392e-29
2.13464e-29
2.108e-29
2.07238e-29
2.02595e-29
1.96687e-29
1.89359e-29
1.80514e-29
1.70163e-29
1.58454e-29
1.45698e-29
1.3235e-29
1.18962e-29
1.06105e-29
9.42735e-30
8.38251e-30
7.49448e-30
1.49248e-29
1.49058e-29
1.48664e-29
1.48032e-29
1.47115e-29
1.4585e-29
1.44159e-29
1.41953e-29
1.39141e-29
1.35636e-29
1.31374e-29
1.26328e-29
1.20527e-29
1.14071e-29
1.07128e-29
9.99274e-30
9.27356e-30
8.58194e-30
7.94128e-30
7.36904e-30
1.16258e-29
1.16155e-29
1.15942e-29
1.15601e-29
1.15108e-29
1.14429e-29
1.13522e-29
1.1234e-29
1.10834e-29
1.08953e-29
1.06656e-29
1.0392e-29
1.00744e-29
9.71606e-30
9.32395e-30
8.90844e-30
8.48263e-30
8.06098e-30
7.65765e-30
7.28493e-30
9.85652e-30
9.85049e-30
9.83795e-30
9.81796e-30
9.78908e-30
9.7494e-30
9.69658e-30
9.6279e-30
9.54045e-30
9.4313e-30
9.29792e-30
9.13852e-30
8.95255e-30
8.74114e-30
8.50733e-30
8.25621e-30
7.99459e-30
7.73053e-30
7.47246e-30
7.22839e-30
8.83399e-30
8.83023e-30
8.82242e-30
8.81001e-30
8.79212e-30
8.76763e-30
8.73512e-30
8.69297e-30
8.63944e-30
8.57277e-30
8.49136e-30
8.39404e-30
8.28029e-30
8.15047e-30
8.00607e-30
7.84974e-30
7.68521e-30
7.51709e-30
7.35046e-30
7.19037e-30
8.21281e-30
8.21038e-30
8.20534e-30
8.19735e-30
8.18587e-30
8.17019e-30
8.14947e-30
8.12269e-30
8.0888e-30
8.04671e-30
7.99544e-30
7.93422e-30
7.86269e-30
7.78096e-30
7.68981e-30
7.59072e-30
7.48581e-30
7.37779e-30
7.26976e-30
7.16487e-30
7.82304e-30
7.82143e-30
7.81811e-30
7.81285e-30
7.80532e-30
7.79507e-30
7.78158e-30
7.76421e-30
7.74231e-30
7.71521e-30
7.6823e-30
7.6431e-30
7.59737e-30
7.54516e-30
7.48691e-30
7.42346e-30
7.35608e-30
7.28641e-30
7.21633e-30
7.14783e-30
7.57351e-30
7.57244e-30
7.57022e-30
7.56672e-30
7.56172e-30
7.55495e-30
7.54606e-30
7.53467e-30
7.52036e-30
7.50273e-30
7.48139e-30
7.45606e-30
7.42658e-30
7.39298e-30
7.35552e-30
7.31472e-30
7.27135e-30
7.2264e-30
7.18103e-30
7.13649e-30
7.41194e-30
7.41122e-30
7.40973e-30
7.40739e-30
7.40406e-30
7.39956e-30
7.39368e-30
7.38618e-30
7.37679e-30
7.36527e-30
7.35139e-30
7.33496e-30
7.3159e-30
7.29423e-30
7.27011e-30
7.24387e-30
7.21598e-30
7.18704e-30
7.15779e-30
7.12899e-30
7.30678e-30
7.30629e-30
7.3053e-30
7.30374e-30
7.30152e-30
7.29853e-30
7.29465e-30
7.28971e-30
7.28355e-30
7.27603e-30
7.267e-30
7.25635e-30
7.24404e-30
7.23008e-30
7.21459e-30
7.19775e-30
7.17987e-30
7.16133e-30
7.14257e-30
7.12407e-30
7.23828e-30
7.23796e-30
7.2373e-30
7.23626e-30
7.23479e-30
7.23281e-30
7.23025e-30
7.22701e-30
7.22299e-30
7.2181e-30
7.21225e-30
7.20537e-30
7.19745e-30
7.1885e-30
7.17858e-30
7.16783e-30
7.15643e-30
7.14461e-30
7.13265e-30
7.12086e-30
7.19378e-30
7.19357e-30
7.19313e-30
7.19244e-30
7.19147e-30
7.19018e-30
7.1885e-30
7.18639e-30
7.18378e-30
7.18061e-30
7.17684e-30
7.17243e-30
7.16736e-30
7.16165e-30
7.15534e-30
7.14852e-30
7.14129e-30
7.13381e-30
7.12624e-30
7.11878e-30
7.165e-30
7.16486e-30
7.16457e-30
7.16412e-30
7.16349e-30
7.16265e-30
7.16156e-30
7.16019e-30
7.15851e-30
7.15648e-30
7.15407e-30
7.15125e-30
7.14804e-30
7.14442e-30
7.14043e-30
7.13613e-30
7.13158e-30
7.12688e-30
7.12213e-30
7.11744e-30
7.14651e-30
7.14641e-30
7.14623e-30
7.14594e-30
7.14553e-30
7.14498e-30
7.14428e-30
7.14341e-30
7.14233e-30
7.14104e-30
7.13951e-30
7.13773e-30
7.1357e-30
7.13343e-30
7.13093e-30
7.12824e-30
7.1254e-30
7.12247e-30
7.11951e-30
7.11659e-30
7.13471e-30
7.13465e-30
7.13453e-30
7.13434e-30
7.13408e-30
7.13373e-30
7.13329e-30
7.13273e-30
7.13205e-30
7.13124e-30
7.13028e-30
7.12916e-30
7.12789e-30
7.12648e-30
7.12492e-30
7.12326e-30
7.1215e-30
7.11968e-30
7.11786e-30
7.11605e-30
7.12725e-30
7.12721e-30
7.12713e-30
7.12702e-30
7.12685e-30
7.12663e-30
7.12635e-30
7.126e-30
7.12557e-30
7.12506e-30
7.12446e-30
7.12377e-30
7.12299e-30
7.12211e-30
7.12116e-30
7.12013e-30
7.11905e-30
7.11794e-30
7.11682e-30
7.11571e-30
7.12257e-30
7.12255e-30
7.1225e-30
7.12242e-30
7.12232e-30
7.12218e-30
7.12201e-30
7.12179e-30
7.12153e-30
7.12121e-30
7.12084e-30
7.12042e-30
7.11993e-30
7.1194e-30
7.11881e-30
7.11819e-30
7.11753e-30
7.11686e-30
7.11618e-30
7.11551e-30
7.11966e-30
7.11965e-30
7.11962e-30
7.11957e-30
7.11951e-30
7.11942e-30
7.11931e-30
7.11918e-30
7.11902e-30
7.11883e-30
7.1186e-30
7.11834e-30
7.11805e-30
7.11772e-30
7.11737e-30
7.11699e-30
7.1166e-30
7.11619e-30
7.11578e-30
7.11538e-30
7.11788e-30
7.11787e-30
7.11785e-30
7.11782e-30
7.11778e-30
7.11773e-30
7.11766e-30
7.11758e-30
7.11748e-30
7.11736e-30
7.11723e-30
7.11707e-30
7.1169e-30
7.1167e-30
7.11649e-30
7.11626e-30
7.11603e-30
7.11578e-30
7.11554e-30
7.1153e-30
7.11679e-30
7.11678e-30
7.11677e-30
7.11675e-30
7.11673e-30
7.1167e-30
7.11666e-30
7.11661e-30
7.11655e-30
7.11648e-30
7.1164e-30
7.1163e-30
7.1162e-30
7.11608e-30
7.11596e-30
7.11582e-30
7.11568e-30
7.11554e-30
7.11539e-30
7.11525e-30
7.11613e-30
7.11612e-30
7.11612e-30
7.11611e-30
7.11609e-30
7.11607e-30
7.11605e-30
7.11602e-30
7.11599e-30
7.11594e-30
7.1159e-30
7.11584e-30
7.11578e-30
7.11571e-30
7.11564e-30
7.11556e-30
7.11547e-30
7.11539e-30
7.11531e-30
7.11522e-30
7.11573e-30
7.11573e-30
7.11573e-30
7.11572e-30
7.11571e-30
7.1157e-30
7.11569e-30
7.11567e-30
7.11565e-30
7.11563e-30
7.1156e-30
7.11556e-30
7.11553e-30
7.11549e-30
7.11545e-30
7.1154e-30
7.11535e-30
7.1153e-30
7.11525e-30
7.11521e-30
7.1155e-30
7.1155e-30
7.1155e-30
7.11549e-30
7.11549e-30
7.11548e-30
7.11547e-30
7.11546e-30
7.11545e-30
7.11544e-30
7.11542e-30
7.1154e-30
7.11538e-30
7.11536e-30
7.11533e-30
7.11531e-30
7.11528e-30
7.11525e-30
7.11522e-30
7.1152e-30
7.11537e-30
7.11536e-30
7.11536e-30
7.11536e-30
7.11536e-30
7.11535e-30
7.11535e-30
7.11534e-30
7.11534e-30
7.11533e-30
7.11532e-30
7.11531e-30
7.1153e-30
7.11528e-30
7.11527e-30
7.11525e-30
7.11524e-30
7.11522e-30
7.11521e-30
7.11519e-30
7.11529e-30
7.11529e-30
7.11529e-30
7.11528e-30
7.11528e-30
7.11528e-30
7.11528e-30
7.11527e-30
7.11527e-30
7.11527e-30
7.11526e-30
7.11525e-30
7.11525e-30
7.11524e-30
7.11523e-30
7.11522e-30
7.11521e-30
7.1152e-30
7.1152e-30
7.11519e-30
7.11524e-30
7.11524e-30
7.11524e-30
7.11524e-30
7.11524e-30
7.11524e-30
7.11524e-30
7.11523e-30
7.11523e-30
7.11523e-30
7.11523e-30
7.11522e-30
7.11522e-30
7.11521e-30
7.11521e-30
7.11521e-30
7.1152e-30
7.1152e-30
7.11519e-30
7.11519e-30
7.11521e-30
7.11521e-30
7.11521e-30
7.11521e-30
7.11521e-30
7.11521e-30
7.11521e-30
7.11521e-30
7.11521e-30
7.11521e-30
7.11521e-30
7.1152e-30
7.1152e-30
7.1152e-30
7.1152e-30
7.1152e-30
7.11519e-30
7.11519e-30
7.11519e-30
7.11518e-30
7.1152e-30
7.1152e-30
7.1152e-30
7.1152e-30
7.1152e-30
7.1152e-30
7.1152e-30
7.1152e-30
7.1152e-30
7.1152e-30
7.1152e-30
7.11519e-30
7.11519e-30
7.11519e-30
7.11519e-30
7.11519e-30
7.11519e-30
7.11519e-30
7.11518e-30
7.11518e-30
7.11519e-30
7.11519e-30
7.11519e-30
7.11519e-30
7.11519e-30
7.11519e-30
7.11519e-30
7.11519e-30
7.11519e-30
7.11519e-30
7.11519e-30
7.11519e-30
7.11519e-30
7.11519e-30
7.11519e-30
7.11519e-30
7.11519e-30
7.11518e-30
7.11518e-30
7.11518e-30
7.11519e-30
7.11519e-30
7.11519e-30
7.11519e-30
7.11519e-30
7.11519e-30
7.11519e-30
7.11519e-30
7.11519e-30
7.11519e-30
7.11519e-30
7.11519e-30
7.11519e-30
7.11519e-30
7.11519e-30
7.11518e-30
7.11518e-30
7.11518e-30
7.11518e-30
7.11518e-30
7.11519e-30
7.11519e-30
7.11519e-30
7.11519e-30
7.11519e-30
7.11519e-30
7.11519e-30
7.11519e-30
7.11519e-30
7.11518e-30
7.11518e-30
7.11518e-30
7.11518e-30
7.11518e-30
7.11518e-30
7.11518e-30
7.11518e-30
7.11518e-30
7.11518e-30
7.11518e-30
7.11518e-30
7.11518e-30
7.11518e-30
7.11518e-30
7.11518e-30
7.11518e-30
7.11518e-30
7.11518e-30
7.11518e-30
7.11518e-30
7.11518e-30
7.11518e-30
7.11518e-30
7.11518e-30
7.11518e-30
7.11518e-30
7.11518e-30
7.11518e-30
7.11518e-30
7.11518e-30
7.11518e-30
7.11518e-30
7.11518e-30
7.11518e-30
7.11518e-30
7.11518e-30
7.11518e-30
7.11518e-30
7.11518e-30
7.11518e-30
7.11518e-30
7.11518e-30
7.11518e-30
7.11518e-30
7.11518e-30
7.11518e-30
7.11518e-30
7.11518e-30
7.11518e-30
7.11518e-30
)
;

boundaryField
{
    topWall
    {
        type            zeroGradient;
    }
    bottomWall
    {
        type            zeroGradient;
    }
    sideWallL
    {
        type            symmetry;
    }
    sideWallR
    {
        type            zeroGradient;
    }
    frontAndBack
    {
        type            empty;
    }
}


// ************************************************************************* //
