/*--------------------------------*- C++ -*----------------------------------*\
  =========                 |
  \\      /  F ield         | OpenFOAM: The Open Source CFD Toolbox
   \\    /   O peration     | Website:  https://openfoam.org
    \\  /    A nd           | Version:  7
     \\/     M anipulation  |
\*---------------------------------------------------------------------------*/
FoamFile
{
    version     2.0;
    format      ascii;
    class       volScalarField;
    location    "15";
    object      rhot1;
}
// * * * * * * * * * * * * * * * * * * * * * * * * * * * * * * * * * * * * * //

dimensions      [1 -3 0 0 0 0 0];

internalField   nonuniform List<scalar> 
900
(
1.21443e-06
1.21408e-06
1.21334e-06
1.21212e-06
1.21024e-06
1.20746e-06
1.20341e-06
1.19754e-06
1.18904e-06
1.17673e-06
1.15882e-06
1.13264e-06
1.09409e-06
1.03681e-06
9.50849e-07
8.20648e-07
6.24352e-07
3.49038e-07
7.70357e-08
4.28754e-10
7.46021e-08
7.4533e-08
7.4386e-08
7.41422e-08
7.37706e-08
7.32241e-08
7.2434e-08
7.13021e-08
6.96903e-08
6.74072e-08
6.4194e-08
5.97145e-08
5.35664e-08
4.5352e-08
3.4894e-08
2.27294e-08
1.08725e-08
2.80627e-09
1.91333e-10
6.82688e-13
5.42282e-09
5.41409e-09
5.39554e-09
5.36489e-09
5.31842e-09
5.25058e-09
5.15349e-09
5.01635e-09
4.82478e-09
4.56054e-09
4.20215e-09
3.72784e-09
3.12305e-09
2.3957e-09
1.59943e-09
8.52774e-10
3.12749e-10
6.08151e-11
4.1053e-12
6.61888e-14
4.85183e-10
4.84087e-10
4.81765e-10
4.77943e-10
4.72182e-10
4.6384e-10
4.52034e-10
4.35602e-10
4.13101e-10
3.82879e-10
3.43328e-10
2.93434e-10
2.33773e-10
1.67877e-10
1.03269e-10
5.03662e-11
1.73626e-11
3.61507e-12
3.89348e-13
2.52832e-14
5.50894e-11
5.49356e-11
5.46105e-11
5.40777e-11
5.32793e-11
5.21328e-11
5.05277e-11
4.83252e-11
4.53637e-11
4.14787e-11
3.65452e-11
3.05539e-11
2.37191e-11
1.65816e-11
1.00037e-11
4.91908e-12
1.83728e-12
4.87086e-13
9.16215e-14
1.58047e-14
8.10184e-12
8.07637e-12
8.02266e-12
7.93497e-12
7.80433e-12
7.61813e-12
7.35999e-12
7.01009e-12
6.54671e-12
5.94997e-12
5.20872e-12
4.33122e-12
3.35761e-12
2.36791e-12
1.47325e-12
7.80524e-13
3.40676e-13
1.21258e-13
3.73939e-14
1.21879e-14
1.55953e-12
1.55443e-12
1.54368e-12
1.5262e-12
1.50029e-12
1.4636e-12
1.41314e-12
1.34541e-12
1.25673e-12
1.14397e-12
1.0058e-12
8.44392e-13
6.67184e-13
4.87646e-13
3.23479e-13
1.91385e-13
1.00204e-13
4.72345e-14
2.13762e-14
1.04328e-14
3.93727e-13
3.92478e-13
3.89855e-13
3.85603e-13
3.79325e-13
3.70484e-13
3.58401e-13
3.42295e-13
3.21366e-13
2.94951e-13
2.62787e-13
2.25339e-13
1.84127e-13
1.41844e-13
1.02025e-13
6.81552e-14
4.24899e-14
2.52867e-14
1.50298e-14
9.46181e-15
1.29746e-13
1.29375e-13
1.28599e-13
1.27343e-13
1.25496e-13
1.22906e-13
1.19381e-13
1.14706e-13
1.08656e-13
1.01046e-13
9.17874e-14
8.0971e-14
6.89443e-14
5.63434e-14
4.40339e-14
3.29328e-14
2.37584e-14
1.6825e-14
1.20063e-14
8.88122e-15
5.50838e-14
5.49527e-14
5.46781e-14
5.4235e-14
5.35849e-14
5.26761e-14
5.14438e-14
4.9814e-14
4.77099e-14
4.50642e-14
4.18374e-14
3.80418e-14
3.37633e-14
2.91751e-14
2.45276e-14
2.01087e-14
1.61815e-14
1.29214e-14
1.0384e-14
8.51685e-15
2.93657e-14
2.93115e-14
2.91979e-14
2.90149e-14
2.87472e-14
2.83738e-14
2.78689e-14
2.72024e-14
2.63428e-14
2.5261e-14
2.39369e-14
2.23671e-14
2.05734e-14
1.8608e-14
1.65537e-14
1.45138e-14
1.25949e-14
1.0886e-14
9.44256e-15
8.28102e-15
1.88992e-14
1.88736e-14
1.882e-14
1.87337e-14
1.86079e-14
1.84327e-14
1.81964e-14
1.7885e-14
1.74837e-14
1.69782e-14
1.63574e-14
1.56162e-14
1.47595e-14
1.38042e-14
1.27805e-14
1.17297e-14
1.06985e-14
9.73228e-15
8.86706e-15
8.12532e-15
1.40245e-14
1.40111e-14
1.39829e-14
1.39377e-14
1.38718e-14
1.37804e-14
1.36574e-14
1.34956e-14
1.32872e-14
1.30248e-14
1.27016e-14
1.2314e-14
1.1862e-14
1.13514e-14
1.07942e-14
1.02083e-14
9.61566e-15
9.03994e-15
8.5028e-15
8.02126e-15
1.15035e-14
1.14958e-14
1.14797e-14
1.14539e-14
1.14165e-14
1.13647e-14
1.12951e-14
1.12039e-14
1.10866e-14
1.09389e-14
1.0757e-14
1.05381e-14
1.02815e-14
9.98908e-15
9.66593e-15
9.32041e-15
8.9636e-15
8.60818e-15
8.26693e-15
7.95122e-15
1.0093e-14
1.00883e-14
1.00785e-14
1.00629e-14
1.00403e-14
1.0009e-14
9.96725e-15
9.91257e-15
9.84249e-15
9.7544e-15
9.64595e-15
9.51535e-15
9.36181e-15
9.18592e-15
8.99003e-15
8.7783e-15
8.55658e-15
8.33194e-15
8.11196e-15
7.90392e-15
9.2573e-15
9.25432e-15
9.24812e-15
9.23823e-15
9.22394e-15
9.20427e-15
9.17804e-15
9.14385e-15
9.10016e-15
9.0454e-15
8.97811e-15
8.89713e-15
8.80187e-15
8.69249e-15
8.57013e-15
8.43701e-15
8.29637e-15
8.15228e-15
8.00928e-15
7.87196e-15
8.74177e-15
8.73982e-15
8.73576e-15
8.72931e-15
8.72e-15
8.70724e-15
8.69029e-15
8.66828e-15
8.64026e-15
8.60526e-15
8.56237e-15
8.51086e-15
8.45033e-15
8.3808e-15
8.30289e-15
8.21783e-15
8.12749e-15
8.03428e-15
7.94096e-15
7.8504e-15
8.41485e-15
8.41354e-15
8.41084e-15
8.40654e-15
8.40037e-15
8.39193e-15
8.38077e-15
8.36634e-15
8.34804e-15
8.32528e-15
8.29748e-15
8.2642e-15
8.22517e-15
8.18038e-15
8.1302e-15
8.07534e-15
8.01692e-15
7.95639e-15
7.89545e-15
7.8359e-15
8.2038e-15
8.20292e-15
8.20109e-15
8.1982e-15
8.19406e-15
8.18843e-15
8.181e-15
8.17144e-15
8.15938e-15
8.14443e-15
8.12625e-15
8.10455e-15
8.07918e-15
8.05014e-15
8.01763e-15
7.9821e-15
7.94423e-15
7.90491e-15
7.86519e-15
7.82619e-15
8.06611e-15
8.06551e-15
8.06427e-15
8.06232e-15
8.05954e-15
8.05576e-15
8.0508e-15
8.04444e-15
8.03645e-15
8.0266e-15
8.01466e-15
8.00047e-15
7.98394e-15
7.96506e-15
7.94397e-15
7.92095e-15
7.89642e-15
7.87093e-15
7.84513e-15
7.81973e-15
7.97582e-15
7.97542e-15
7.97458e-15
7.97327e-15
7.97139e-15
7.96886e-15
7.96555e-15
7.96132e-15
7.95603e-15
7.94954e-15
7.94171e-15
7.93243e-15
7.92166e-15
7.90941e-15
7.89575e-15
7.88087e-15
7.86502e-15
7.84856e-15
7.83189e-15
7.81545e-15
7.91657e-15
7.9163e-15
7.91573e-15
7.91485e-15
7.91359e-15
7.9119e-15
7.9097e-15
7.9069e-15
7.90341e-15
7.89914e-15
7.89402e-15
7.88798e-15
7.88099e-15
7.87307e-15
7.86425e-15
7.85467e-15
7.84449e-15
7.83392e-15
7.82321e-15
7.81264e-15
7.87776e-15
7.87758e-15
7.8772e-15
7.87661e-15
7.87577e-15
7.87465e-15
7.87319e-15
7.87135e-15
7.86906e-15
7.86628e-15
7.86295e-15
7.85903e-15
7.85452e-15
7.84942e-15
7.84377e-15
7.83764e-15
7.83113e-15
7.82438e-15
7.81755e-15
7.8108e-15
7.85245e-15
7.85233e-15
7.85208e-15
7.85169e-15
7.85113e-15
7.85039e-15
7.84944e-15
7.84823e-15
7.84674e-15
7.84494e-15
7.84279e-15
7.84027e-15
7.83738e-15
7.83412e-15
7.83052e-15
7.82662e-15
7.82249e-15
7.81821e-15
7.81388e-15
7.80961e-15
7.83604e-15
7.83596e-15
7.8358e-15
7.83554e-15
7.83518e-15
7.83469e-15
7.83407e-15
7.83329e-15
7.83233e-15
7.83117e-15
7.82979e-15
7.82819e-15
7.82635e-15
7.82428e-15
7.822e-15
7.81954e-15
7.81694e-15
7.81425e-15
7.81153e-15
7.80885e-15
7.82548e-15
7.82543e-15
7.82532e-15
7.82515e-15
7.82492e-15
7.82461e-15
7.82421e-15
7.82371e-15
7.82309e-15
7.82235e-15
7.82148e-15
7.82046e-15
7.8193e-15
7.818e-15
7.81657e-15
7.81503e-15
7.8134e-15
7.81173e-15
7.81003e-15
7.80836e-15
7.81873e-15
7.8187e-15
7.81863e-15
7.81852e-15
7.81837e-15
7.81817e-15
7.81792e-15
7.8176e-15
7.81721e-15
7.81675e-15
7.81619e-15
7.81556e-15
7.81483e-15
7.81402e-15
7.81313e-15
7.81218e-15
7.81117e-15
7.81013e-15
7.80908e-15
7.80805e-15
7.81446e-15
7.81444e-15
7.8144e-15
7.81433e-15
7.81424e-15
7.81411e-15
7.81395e-15
7.81375e-15
7.8135e-15
7.81321e-15
7.81287e-15
7.81247e-15
7.81202e-15
7.81152e-15
7.81098e-15
7.81039e-15
7.80977e-15
7.80913e-15
7.80849e-15
7.80786e-15
7.81179e-15
7.81177e-15
7.81174e-15
7.8117e-15
7.81164e-15
7.81156e-15
7.81146e-15
7.81134e-15
7.81119e-15
7.81101e-15
7.81079e-15
7.81055e-15
7.81028e-15
7.80997e-15
7.80963e-15
7.80928e-15
7.8089e-15
7.80851e-15
7.80812e-15
7.80774e-15
7.81012e-15
7.81011e-15
7.8101e-15
7.81007e-15
7.81003e-15
7.80998e-15
7.80992e-15
7.80984e-15
7.80975e-15
7.80964e-15
7.80951e-15
7.80936e-15
7.8092e-15
7.80901e-15
7.80881e-15
7.80859e-15
7.80836e-15
7.80813e-15
7.8079e-15
7.80766e-15
7.8091e-15
7.80909e-15
7.80908e-15
7.80906e-15
7.80904e-15
7.80901e-15
7.80897e-15
7.80893e-15
7.80887e-15
7.8088e-15
7.80873e-15
7.80864e-15
7.80853e-15
7.80842e-15
7.8083e-15
7.80817e-15
7.80804e-15
7.8079e-15
7.80776e-15
7.80762e-15
7.80847e-15
7.80847e-15
7.80846e-15
7.80845e-15
7.80844e-15
7.80842e-15
7.8084e-15
7.80837e-15
7.80834e-15
7.8083e-15
7.80825e-15
7.80819e-15
7.80813e-15
7.80807e-15
7.808e-15
7.80792e-15
7.80784e-15
7.80776e-15
7.80767e-15
7.80759e-15
7.80809e-15
7.80809e-15
7.80809e-15
7.80808e-15
7.80807e-15
7.80806e-15
7.80805e-15
7.80803e-15
7.80801e-15
7.80799e-15
7.80796e-15
7.80793e-15
7.80789e-15
7.80786e-15
7.80781e-15
7.80777e-15
7.80772e-15
7.80767e-15
7.80762e-15
7.80758e-15
7.80787e-15
7.80787e-15
7.80787e-15
7.80786e-15
7.80786e-15
7.80785e-15
7.80784e-15
7.80783e-15
7.80782e-15
7.80781e-15
7.80779e-15
7.80777e-15
7.80775e-15
7.80773e-15
7.8077e-15
7.80768e-15
7.80765e-15
7.80762e-15
7.80759e-15
7.80757e-15
7.80774e-15
7.80774e-15
7.80773e-15
7.80773e-15
7.80773e-15
7.80773e-15
7.80772e-15
7.80771e-15
7.80771e-15
7.8077e-15
7.80769e-15
7.80768e-15
7.80767e-15
7.80765e-15
7.80764e-15
7.80762e-15
7.80761e-15
7.80759e-15
7.80758e-15
7.80756e-15
7.80766e-15
7.80766e-15
7.80766e-15
7.80766e-15
7.80765e-15
7.80765e-15
7.80765e-15
7.80765e-15
7.80764e-15
7.80764e-15
7.80763e-15
7.80763e-15
7.80762e-15
7.80761e-15
7.8076e-15
7.80759e-15
7.80758e-15
7.80758e-15
7.80757e-15
7.80756e-15
7.80761e-15
7.80761e-15
7.80761e-15
7.80761e-15
7.80761e-15
7.80761e-15
7.80761e-15
7.80761e-15
7.8076e-15
7.8076e-15
7.8076e-15
7.80759e-15
7.80759e-15
7.80759e-15
7.80758e-15
7.80758e-15
7.80757e-15
7.80757e-15
7.80756e-15
7.80756e-15
7.80759e-15
7.80759e-15
7.80759e-15
7.80759e-15
7.80758e-15
7.80758e-15
7.80758e-15
7.80758e-15
7.80758e-15
7.80758e-15
7.80758e-15
7.80758e-15
7.80757e-15
7.80757e-15
7.80757e-15
7.80757e-15
7.80756e-15
7.80756e-15
7.80756e-15
7.80755e-15
7.80757e-15
7.80757e-15
7.80757e-15
7.80757e-15
7.80757e-15
7.80757e-15
7.80757e-15
7.80757e-15
7.80757e-15
7.80757e-15
7.80757e-15
7.80757e-15
7.80756e-15
7.80756e-15
7.80756e-15
7.80756e-15
7.80756e-15
7.80756e-15
7.80756e-15
7.80755e-15
7.80756e-15
7.80756e-15
7.80756e-15
7.80756e-15
7.80756e-15
7.80756e-15
7.80756e-15
7.80756e-15
7.80756e-15
7.80756e-15
7.80756e-15
7.80756e-15
7.80756e-15
7.80756e-15
7.80756e-15
7.80756e-15
7.80756e-15
7.80756e-15
7.80755e-15
7.80755e-15
7.80756e-15
7.80756e-15
7.80756e-15
7.80756e-15
7.80756e-15
7.80756e-15
7.80756e-15
7.80756e-15
7.80756e-15
7.80756e-15
7.80756e-15
7.80756e-15
7.80756e-15
7.80756e-15
7.80756e-15
7.80756e-15
7.80755e-15
7.80755e-15
7.80755e-15
7.80755e-15
7.80756e-15
7.80756e-15
7.80756e-15
7.80756e-15
7.80756e-15
7.80756e-15
7.80756e-15
7.80756e-15
7.80756e-15
7.80756e-15
7.80756e-15
7.80755e-15
7.80755e-15
7.80755e-15
7.80755e-15
7.80755e-15
7.80755e-15
7.80755e-15
7.80755e-15
7.80755e-15
7.80755e-15
7.80755e-15
7.80755e-15
7.80755e-15
7.80755e-15
7.80755e-15
7.80755e-15
7.80755e-15
7.80755e-15
7.80755e-15
7.80755e-15
7.80755e-15
7.80755e-15
7.80755e-15
7.80755e-15
7.80755e-15
7.80755e-15
7.80755e-15
7.80755e-15
7.80755e-15
7.80755e-15
7.80755e-15
7.80755e-15
7.80755e-15
7.80755e-15
7.80755e-15
7.80755e-15
7.80755e-15
7.80755e-15
7.80755e-15
7.80755e-15
7.80755e-15
7.80755e-15
7.80755e-15
7.80755e-15
7.80755e-15
7.80755e-15
7.80755e-15
7.80755e-15
7.80755e-15
7.80755e-15
7.80755e-15
7.80755e-15
7.80755e-15
7.80755e-15
7.80755e-15
7.80755e-15
7.80755e-15
7.80755e-15
7.80755e-15
7.80755e-15
7.80755e-15
7.80755e-15
7.80755e-15
7.80755e-15
7.80755e-15
7.80755e-15
7.80755e-15
7.80755e-15
7.80755e-15
)
;

boundaryField
{
    topWall
    {
        type            zeroGradient;
    }
    bottomWall
    {
        type            zeroGradient;
    }
    sideWallL
    {
        type            symmetry;
    }
    sideWallR
    {
        type            calculated;
        value           uniform 0;
    }
    frontAndBack
    {
        type            empty;
    }
}


// ************************************************************************* //
