/*--------------------------------*- C++ -*----------------------------------*\
  =========                 |
  \\      /  F ield         | OpenFOAM: The Open Source CFD Toolbox
   \\    /   O peration     | Website:  https://openfoam.org
    \\  /    A nd           | Version:  7
     \\/     M anipulation  |
\*---------------------------------------------------------------------------*/
FoamFile
{
    version     2.0;
    format      ascii;
    class       volScalarField;
    location    "15";
    object      T;
}
// * * * * * * * * * * * * * * * * * * * * * * * * * * * * * * * * * * * * * //

dimensions      [0 0 0 1 0 0 0];

internalField   nonuniform List<scalar> 
900
(
408.499
408.496
408.49
408.478
408.462
408.437
408.401
408.35
408.275
408.168
408.011
407.78
407.434
406.901
406.052
404.626
402.02
396.607
383.207
342.936
383.952
383.943
383.923
383.892
383.843
383.773
383.67
383.523
383.313
383.009
382.568
381.923
380.965
379.518
377.275
373.681
367.675
357.131
337.776
301.991
363.276
363.262
363.232
363.182
363.107
362.997
362.838
362.611
362.288
361.825
361.161
360.201
358.802
356.74
353.658
348.978
341.765
330.55
313.294
288.241
345.96
345.942
345.903
345.839
345.742
345.602
345.401
345.116
344.712
344.14
343.329
342.177
340.534
338.18
334.796
329.919
322.913
312.99
299.43
282.28
331.547
331.526
331.481
331.407
331.297
331.136
330.908
330.587
330.137
329.507
328.628
327.401
325.691
323.312
320.016
315.483
309.342
301.238
291.027
279.124
319.632
319.609
319.561
319.482
319.364
319.194
318.954
318.619
318.155
317.513
316.632
315.424
313.78
311.556
308.577
304.643
299.558
293.199
285.624
277.22
309.854
309.831
309.782
309.702
309.583
309.413
309.174
308.844
308.392
307.775
306.941
305.82
304.326
302.356
299.796
296.528
292.463
287.58
281.989
275.979
301.892
301.87
301.822
301.744
301.629
301.466
301.24
300.929
300.508
299.942
299.187
298.191
296.89
295.215
293.092
290.459
287.283
283.584
279.466
275.132
295.462
295.441
295.396
295.324
295.217
295.066
294.859
294.578
294.2
293.699
293.041
292.187
291.091
289.708
287.995
285.921
283.48
280.703
277.676
274.537
290.313
290.294
290.253
290.188
290.092
289.958
289.774
289.527
289.2
288.77
288.213
287.501
286.603
285.489
284.137
282.531
280.678
278.61
276.389
274.111
286.228
286.211
286.175
286.117
286.034
285.917
285.759
285.548
285.272
284.913
284.454
283.874
283.155
282.276
281.227
280.001
278.61
277.079
275.456
273.804
283.016
283.001
282.97
282.921
282.85
282.751
282.619
282.443
282.215
281.922
281.552
281.091
280.525
279.844
279.042
278.118
277.083
275.958
274.776
273.581
280.514
280.502
280.476
280.435
280.376
280.294
280.185
280.043
279.859
279.625
279.332
278.971
278.534
278.015
277.409
276.721
275.958
275.136
274.28
273.418
278.585
278.575
278.554
278.52
278.472
278.406
278.319
278.205
278.059
277.876
277.649
277.371
277.039
276.647
276.196
275.689
275.131
274.535
273.918
273.3
277.112
277.104
277.087
277.06
277.021
276.969
276.9
276.811
276.698
276.557
276.383
276.173
275.924
275.633
275.301
274.93
274.526
274.097
273.655
273.214
275.998
275.992
275.978
275.957
275.927
275.887
275.833
275.765
275.678
275.571
275.441
275.284
275.099
274.886
274.644
274.376
274.085
273.779
273.465
273.151
275.165
275.16
275.15
275.133
275.11
275.079
275.039
274.987
274.922
274.842
274.745
274.63
274.495
274.34
274.165
273.973
273.767
273.549
273.327
273.107
274.548
274.544
274.536
274.524
274.507
274.483
274.453
274.414
274.366
274.307
274.236
274.153
274.055
273.944
273.819
273.683
273.537
273.385
273.229
273.075
274.096
274.093
274.087
274.078
274.065
274.048
274.025
273.997
273.962
273.919
273.868
273.808
273.738
273.659
273.571
273.476
273.374
273.267
273.159
273.052
273.768
273.766
273.762
273.755
273.746
273.733
273.717
273.696
273.671
273.64
273.604
273.561
273.512
273.456
273.395
273.328
273.258
273.184
273.109
273.036
273.533
273.532
273.529
273.524
273.517
273.508
273.496
273.481
273.463
273.442
273.416
273.386
273.352
273.313
273.271
273.225
273.176
273.126
273.075
273.024
273.366
273.365
273.363
273.359
273.355
273.348
273.34
273.329
273.317
273.302
273.284
273.263
273.239
273.213
273.184
273.153
273.119
273.085
273.051
273.016
273.249
273.248
273.247
273.244
273.241
273.236
273.231
273.223
273.215
273.204
273.192
273.178
273.161
273.143
273.124
273.103
273.08
273.057
273.034
273.011
273.168
273.167
273.166
273.164
273.162
273.159
273.155
273.15
273.144
273.137
273.128
273.119
273.108
273.096
273.083
273.068
273.053
273.038
273.023
273.007
273.112
273.111
273.111
273.109
273.108
273.106
273.103
273.1
273.096
273.091
273.085
273.079
273.071
273.063
273.054
273.045
273.035
273.025
273.015
273.005
273.074
273.073
273.073
273.072
273.071
273.07
273.068
273.066
273.063
273.06
273.056
273.052
273.047
273.041
273.036
273.029
273.023
273.016
273.01
273.003
273.048
273.048
273.048
273.047
273.046
273.045
273.044
273.043
273.041
273.039
273.036
273.033
273.03
273.027
273.023
273.019
273.015
273.011
273.006
273.002
273.031
273.031
273.031
273.03
273.03
273.029
273.028
273.027
273.026
273.025
273.023
273.022
273.019
273.017
273.015
273.012
273.01
273.007
273.004
273.001
273.02
273.02
273.02
273.019
273.019
273.019
273.018
273.018
273.017
273.016
273.015
273.014
273.012
273.011
273.009
273.008
273.006
273.004
273.003
273.001
273.013
273.013
273.012
273.012
273.012
273.012
273.011
273.011
273.011
273.01
273.009
273.009
273.008
273.007
273.006
273.005
273.004
273.003
273.002
273.001
273.008
273.008
273.008
273.008
273.008
273.007
273.007
273.007
273.007
273.006
273.006
273.005
273.005
273.004
273.004
273.003
273.002
273.002
273.001
273
273.005
273.005
273.005
273.005
273.005
273.005
273.004
273.004
273.004
273.004
273.004
273.003
273.003
273.003
273.002
273.002
273.001
273.001
273.001
273
273.003
273.003
273.003
273.003
273.003
273.003
273.003
273.003
273.003
273.002
273.002
273.002
273.002
273.002
273.001
273.001
273.001
273.001
273
273
273.002
273.002
273.002
273.002
273.002
273.002
273.002
273.002
273.002
273.001
273.001
273.001
273.001
273.001
273.001
273.001
273.001
273
273
273
273.001
273.001
273.001
273.001
273.001
273.001
273.001
273.001
273.001
273.001
273.001
273.001
273.001
273.001
273.001
273
273
273
273
273
273.001
273.001
273.001
273.001
273.001
273.001
273.001
273.001
273.001
273.001
273
273
273
273
273
273
273
273
273
273
273
273
273
273
273
273
273
273
273
273
273
273
273
273
273
273
273
273
273
273
273
273
273
273
273
273
273
273
273
273
273
273
273
273
273
273
273
273
273
273
273
273
273
273
273
273
273
273
273
273
273
273
273
273
273
273
273
273
273
273
273
273
273
273
273
273
273
273
273
273
273
273
273
273
273
273
273
273
273
273
273
273
273
273
273
273
273
273
273
273
273
273
273
273
273
273
273
273
273
273
273
273
273
273
273
273
273
273
273
273
273
273
273
273
273
273
273
273
273
273
273
273
273
273
273
273
273
273
273
273
273
273
273
273
273
273
273
273
273
273
273
273
273
273
273
273
273
273
273
273
273
273
273
273
273
273
273
273
273
273
273
273
273
273
273
273
273
273
273
273
273
273
273
273
273
273
273
273
273
273
)
;

boundaryField
{
    topWall
    {
        type            zeroGradient;
    }
    bottomWall
    {
        type            codedFixedValue;
        value           uniform 423;
        name            heating;
        code            #{
            const scalar t = this->db().time().value();
            const scalar Ttemp = 273 + 10*t;
            operator==(Ttemp);
        #};
    }
    sideWallL
    {
        type            symmetry;
    }
    sideWallR
    {
        type            fixedValue;
        value           uniform 273;
    }
    frontAndBack
    {
        type            empty;
    }
}


// ************************************************************************* //
