/*--------------------------------*- C++ -*----------------------------------*\
  =========                 |
  \\      /  F ield         | OpenFOAM: The Open Source CFD Toolbox
   \\    /   O peration     | Website:  https://openfoam.org
    \\  /    A nd           | Version:  7
     \\/     M anipulation  |
\*---------------------------------------------------------------------------*/
FoamFile
{
    version     2.0;
    format      ascii;
    class       volScalarField;
    location    "14";
    object      gradTx;
}
// * * * * * * * * * * * * * * * * * * * * * * * * * * * * * * * * * * * * * //

dimensions      [0 -1 0 1 0 0 0];

internalField   nonuniform List<scalar> 
900
(
-6.24679
-19.5793
-35.5454
-56.3095
-84.7223
-124.762
-182.194
-265.621
-388.216
-570.751
-847.14
-1275.26
-1959.82
-3105.49
-5155.98
-9209.57
-18435.8
-43479.8
-124592
-420428
-17.9633
-56.2819
-102.103
-161.572
-242.742
-356.786
-519.784
-755.506
-1099.94
-1608.93
-2371.73
-3535.87
-5355.59
-8290.52
-13216.9
-21894.4
-37984.6
-68993.6
-127825
-218273
-28.1417
-88.1115
-159.627
-252.079
-377.67
-553.138
-802.251
-1159.56
-1676.3
-2429.81
-3539.28
-5192.25
-7690.44
-11529
-17530
-27045.4
-42164.6
-65487.2
-97740.6
-128730
-36.19
-113.2
-204.681
-322.289
-480.982
-700.963
-1010.38
-1449.24
-2075.15
-2972.07
-4263.39
-6131.79
-8848.07
-12810.1
-18584.3
-26912.7
-38569.7
-53770.2
-70598.6
-82325.7
-41.762
-130.471
-235.34
-369.235
-548.41
-794.397
-1136.52
-1615.28
-2287.12
-3230.77
-4555.93
-6413.99
-9009.62
-12607.9
-17522
-24048.3
-32278.7
-41697.2
-50534
-55320.9
-44.7804
-139.706
-251.301
-392.658
-580.025
-834.455
-1183.87
-1665.65
-2329.91
-3243.34
-4493.43
-6191.86
-8474.55
-11492.3
-15381
-20192.4
-25762.8
-31513.1
-36258.7
-38301.7
-45.413
-141.463
-253.695
-394.63
-579.509
-827.607
-1163.76
-1620.1
-2237.94
-3069.51
-4178.94
-5641.22
-7536.64
-9936.72
-12875.5
-16299.4
-19994.1
-23505.9
-26117.4
-26994.6
-44.0135
-136.883
-244.703
-378.865
-552.951
-783.701
-1092.04
-1504.06
-2051.86
-2773.82
-3713.74
-4917.78
-6427.53
-8267.03
-10421.5
-12807
-15235.9
-17393.7
-18861.3
-19219.7
-41.0466
-127.446
-227.094
-349.929
-507.548
-713.875
-985.759
-1343.43
-1810.64
-2414.09
-3181.83
-4139.75
-5305.36
-6677.97
-8224.96
-9865.51
-11456.8
-12793
-13630.9
-13754.4
-37.0133
-114.734
-203.78
-312.513
-450.488
-628.865
-860.715
-1161.12
-1546.91
-2035.82
-2644.66
-3386.27
-4264.7
-5268.57
-6362.98
-7481.78
-8523.53
-9356.81
-9840.38
-9859.47
-32.3895
-100.238
-177.466
-270.892
-388.145
-537.892
-729.955
-975.205
-1285.15
-1671
-2142.14
-2703.66
-3353
-4075.76
-4841.4
-5599.93
-6281.97
-6804.67
-7085.31
-7061.49
-27.5831
-85.2284
-150.426
-228.584
-325.627
-448.108
-603.203
-798.525
-1041.67
-1339.43
-1696.52
-2113.83
-2586.2
-3099.99
-3630.85
-4142.78
-4589.36
-4918.63
-5081.67
-5043.87
-22.912
-70.6877
-124.392
-188.208
-266.629
-364.491
-486.912
-639.086
-825.878
-1051.18
-1316.98
-1622.17
-1961.15
-2322.44
-2687.73
-3031.84
-3324.14
-3532.09
-3626.53
-3587.9
-18.5983
-57.2961
-100.541
-151.499
-213.502
-290.046
-384.704
-500.937
-641.766
-809.28
-1003.99
-1224.04
-1464.38
-1716
-1965.63
-2196.02
-2387.14
-2518.63
-2572.92
-2538.86
-14.7756
-45.4574
-79.554
-119.412
-167.457
-226.166
-297.987
-385.177
-489.554
-612.139
-752.723
-909.36
-1077.89
-1251.59
-1421.07
-1574.68
-1699.43
-1782.54
-1813.4
-1785.55
-11.5042
-35.3472
-61.7051
-92.2854
-128.821
-173.039
-226.587
-290.908
-367.059
-455.461
-555.615
-665.793
-782.77
-901.665
-1015.98
-1117.95
-1199.17
-1251.63
-1268.88
-1247.17
-8.78787
-26.9687
-46.9685
-70.008
-97.3054
-130.046
-169.321
-216.037
-270.784
-333.667
-404.13
-480.763
-561.165
-641.883
-718.489
-785.844
-838.551
-871.589
-881.018
-864.636
-6.59248
-20.2086
-35.1182
-52.18
-72.2375
-96.092
-124.457
-157.89
-196.705
-240.86
-289.845
-342.576
-397.316
-451.671
-502.661
-546.919
-580.99
-601.727
-606.72
-594.677
-4.8608
-14.8847
-25.8138
-38.2432
-52.7484
-69.864
-90.0498
-113.643
-140.8
-171.421
-205.087
-240.993
-277.916
-314.22
-347.925
-376.84
-398.763
-411.727
-414.255
-405.586
-3.5251
-10.7841
-18.667
-27.5803
-37.9114
-50.0126
-64.1764
-80.6033
-99.3617
-120.344
-143.225
-167.426
-192.1
-216.148
-238.267
-257.043
-271.078
-279.143
-280.337
-274.211
-2.51599
-7.69007
-13.2881
-19.5838
-26.8347
-35.2702
-45.074
-56.363
-69.1611
-83.3719
-98.7535
-114.9
-131.237
-147.034
-161.441
-173.553
-182.487
-187.48
-187.978
-183.718
-1.7683
-5.40028
-9.31632
-13.6985
-18.7157
-24.5157
-31.2125
-38.8729
-47.4997
-57.0146
-67.2441
-77.9092
-88.6254
-98.9137
-108.226
-115.986
-121.638
-124.71
-124.865
-121.947
-1.22438
-3.73631
-6.43608
-9.44317
-12.8672
-16.8021
-21.318
-26.4523
-32.1988
-38.4981
-45.229
-52.2032
-59.167
-65.8096
-71.7806
-76.7155
-80.2683
-82.1469
-82.1464
-80.1761
-0.835554
-2.54795
-4.38296
-6.41806
-8.72356
-11.3585
-14.3656
-17.7651
-21.5487
-25.673
-30.055
-34.5701
-39.0528
-43.3038
-47.1008
-50.2156
-52.4332
-53.5744
-53.5151
-52.2022
-0.562192
-1.71322
-2.94331
-4.30207
-5.83409
-7.57614
-9.55387
-11.7781
-14.2407
-16.9112
-19.7342
-22.6279
-25.486
-28.182
-30.5763
-32.5267
-33.9009
-34.5893
-34.5172
-33.6536
-0.373068
-1.13619
-1.94967
-2.84491
-3.84986
-4.9872
-6.27217
-7.71031
-9.29498
-11.0053
-12.8048
-14.6408
-16.4456
-18.1398
-19.6365
-20.8478
-21.6929
-22.1052
-22.0398
-21.4788
-0.244236
-0.743411
-1.27427
-1.85648
-2.50737
-3.24077
-4.06566
-4.98475
-5.99302
-7.07651
-8.21154
-9.36464
-10.4933
-11.5481
-12.4754
-13.2214
-13.737
-13.982
-13.9297
-13.5698
-0.157782
-0.480012
-0.821949
-1.19576
-1.61209
-2.07927
-2.60255
-3.18317
-3.81753
-4.49647
-5.2049
-5.92178
-6.62072
-7.27122
-7.84051
-8.29601
-8.60801
-8.7525
-8.71361
-8.48546
-0.100609
-0.305927
-0.523364
-0.760365
-1.02339
-1.31742
-1.64548
-2.00809
-2.40276
-2.82361
-3.26113
-3.70228
-4.13083
-4.52818
-4.87449
-5.15014
-5.33737
-5.42189
-5.39436
-5.25143
-0.0633326
-0.192493
-0.329021
-0.477423
-0.641575
-0.824433
-1.02772
-1.25161
-1.49445
-1.7525
-2.01987
-2.28856
-2.54871
-2.78908
-2.99779
-3.1631
-3.27449
-3.32352
-3.30475
-3.21625
-0.0393655
-0.119598
-0.204259
-0.296047
-0.397265
-0.509647
-0.634165
-0.770848
-0.918612
-1.07514
-1.23681
-1.39878
-1.55513
-1.69912
-1.8237
-1.92194
-1.98763
-2.01584
-2.0034
-1.94924
-0.0241643
-0.073386
-0.125241
-0.181326
-0.242997
-0.311259
-0.386657
-0.469164
-0.558091
-0.652012
-0.748744
-0.84538
-0.93839
-1.0238
-1.09746
-1.15529
-1.19368
-1.20977
-1.20173
-1.16897
-0.014651
-0.0444786
-0.0758543
-0.109714
-0.146847
-0.187831
-0.232966
-0.282215
-0.335147
-0.390897
-0.448163
-0.505222
-0.559996
-0.610158
-0.653281
-0.687007
-0.709243
-0.71834
-0.713255
-0.693659
-0.00877523
-0.0266315
-0.0453883
-0.065588
-0.0876852
-0.112008
-0.138723
-0.167793
-0.198955
-0.231693
-0.265237
-0.298579
-0.330507
-0.359673
-0.384674
-0.404154
-0.416914
-0.422012
-0.418858
-0.40727
-0.00519282
-0.0157546
-0.0268343
-0.0387434
-0.0517407
-0.0660115
-0.0816452
-0.0986149
-0.116761
-0.135779
-0.155221
-0.174501
-0.192923
-0.20971
-0.224062
-0.235206
-0.24246
-0.245292
-0.243369
-0.236593
-0.00303639
-0.00920944
-0.0156774
-0.0226167
-0.0301737
-0.0384517
-0.0474985
-0.0572954
-0.0677472
-0.0786773
-0.0898267
-0.10086
-0.11138
-0.120945
-0.129102
-0.135415
-0.1395
-0.141059
-0.139906
-0.135988
-0.00175457
-0.00532021
-0.00905189
-0.0130488
-0.0173925
-0.0221402
-0.0273172
-0.032911
-0.038866
-0.0450805
-0.051407
-0.0576554
-0.063601
-0.0689962
-0.0735864
-0.0771277
-0.0794063
-0.0802565
-0.0795759
-0.0773359
-0.00100208
-0.00303773
-0.0051659
-0.00744167
-0.00991021
-0.0126027
-0.0155325
-0.0186916
-0.022048
-0.0255438
-0.0290959
-0.0325977
-0.0359237
-0.0389359
-0.0414931
-0.0434602
-0.0447191
-0.0451785
-0.0447825
-0.0435159
-0.000565758
-0.00171464
-0.00291453
-0.00419573
-0.00558295
-0.00709308
-0.00873306
-0.0104979
-0.0123695
-0.0143152
-0.0162888
-0.0182311
-0.0200726
-0.0217375
-0.0231479
-0.0242299
-0.0249188
-0.0251648
-0.0249376
-0.0242292
-0.000315884
-0.000957137
-0.00162623
-0.00233965
-0.00311079
-0.00394872
-0.00485701
-0.00583267
-0.00686544
-0.00793734
-0.00902276
-0.0100892
-0.0110988
-0.0120099
-0.0127802
-0.0133697
-0.0137431
-0.0138737
-0.013745
-0.013353
-0.000174628
-0.000529016
-0.000898457
-0.00129185
-0.00171639
-0.00217689
-0.00267517
-0.00320947
-0.0037741
-0.00435916
-0.00495068
-0.00553098
-0.00607945
-0.00657365
-0.00699075
-0.00730907
-0.0075098
-0.00757852
-0.00750651
-0.0072916
-9.59778e-05
-0.000290694
-0.000493507
-0.00070919
-0.000941586
-0.00119325
-0.00146509
-0.00175609
-0.0020631
-0.00238073
-0.00270138
-0.00301548
-0.00331191
-0.00357861
-0.00380329
-0.00397435
-0.00408172
-0.00411771
-0.00407769
-0.00396053
-5.32064e-05
-0.000161115
-0.000273412
-0.000392685
-0.000521003
-0.000659724
-0.000809308
-0.000969169
-0.00113756
-0.00131149
-0.00148682
-0.00165831
-0.00181992
-0.0019651
-0.00208719
-0.00217991
-0.00223785
-0.00225684
-0.00223443
-0.00217001
-3.12001e-05
-9.44586e-05
-0.000160234
-0.000230007
-0.000304952
-0.000385836
-0.000472905
-0.000565796
-0.000663481
-0.000764231
-0.00086563
-0.000964667
-0.00105786
-0.00114145
-0.00121161
-0.00126477
-0.00129783
-0.00130842
-0.00129515
-0.00125769
-2.19293e-05
-6.63781e-05
-0.000112566
-0.00016151
-0.000214016
-0.00027061
-0.000331449
-0.000396268
-0.000464344
-0.000534467
-0.000604959
-0.000673729
-0.000738366
-0.000796267
-0.000844804
-0.000881503
-0.000904238
-0.000911387
-0.000901989
-0.00087583
)
;

boundaryField
{
    topWall
    {
        type            calculated;
        value           nonuniform List<scalar> 
20
(
-2.19293e-05
-6.63781e-05
-0.000112566
-0.00016151
-0.000214016
-0.00027061
-0.000331449
-0.000396268
-0.000464344
-0.000534467
-0.000604959
-0.000673729
-0.000738366
-0.000796267
-0.000844804
-0.000881503
-0.000904238
-0.000911387
-0.000901989
-0.00087583
)
;
    }
    bottomWall
    {
        type            calculated;
        value           nonuniform List<scalar> 
20
(
-6.24679
-19.5793
-35.5454
-56.3095
-84.7223
-124.762
-182.194
-265.621
-388.216
-570.751
-847.14
-1275.26
-1959.82
-3105.49
-5155.98
-9209.57
-18435.8
-43479.8
-124592
-420428
)
;
    }
    sideWallL
    {
        type            symmetry;
    }
    sideWallR
    {
        type            calculated;
        value           nonuniform List<scalar> 
45
(
-653695
-270380
-141516
-85674
-56158
-38413.7
-26896.4
-19074.2
-13614.8
-9741.57
-6967.63
-4971.69
-3533.67
-2498.85
-1756.46
-1226.3
-849.845
-584.315
-398.409
-269.293
-180.386
-119.713
-78.6949
-51.2306
-33.0231
-21.0741
-13.3128
-8.32399
-5.1511
-3.15458
-1.91174
-1.14641
-0.680239
-0.399372
-0.231995
-0.133341
-0.0758274
-0.0426657
-0.0237551
-0.0130914
-0.00714858
-0.00388276
-0.00212735
-0.00123294
-0.000858581
)
;
    }
    frontAndBack
    {
        type            empty;
    }
}


// ************************************************************************* //
