/*--------------------------------*- C++ -*----------------------------------*\
  =========                 |
  \\      /  F ield         | OpenFOAM: The Open Source CFD Toolbox
   \\    /   O peration     | Website:  https://openfoam.org
    \\  /    A nd           | Version:  7
     \\/     M anipulation  |
\*---------------------------------------------------------------------------*/
FoamFile
{
    version     2.0;
    format      ascii;
    class       volScalarField;
    location    "14";
    object      gradTy;
}
// * * * * * * * * * * * * * * * * * * * * * * * * * * * * * * * * * * * * * //

dimensions      [0 -1 0 1 0 0 0];

internalField   nonuniform List<scalar> 
900
(
-128558
-128582
-128634
-128720
-128852
-129047
-129333
-129749
-130354
-131237
-132534
-134456
-137345
-141772
-148741
-160145
-179845
-216565
-292319
-468981
-108023
-108045
-108092
-108169
-108287
-108462
-108716
-109082
-109610
-110370
-111469
-113062
-115386
-118793
-123809
-131167
-141645
-154896
-163652
-128045
-90241.2
-90259.5
-90298.2
-90362
-90458.9
-90600.3
-90803.1
-91090.9
-91496.8
-92066.1
-92859.9
-93957.8
-95455.8
-97450.2
-99975.4
-102818
-104994
-103403
-89770.4
-46176.5
-74899
-74912.7
-74941.4
-74988.4
-75058.6
-75159.1
-75299.8
-75493.4
-75755.5
-76104.2
-76556.5
-77120.8
-77778.2
-78440
-78857.1
-78432.1
-75859.9
-68546.1
-52070
-21339.5
-61726
-61734.6
-61752.5
-61781.2
-61822.9
-61880.3
-61956.4
-62053.7
-62172.8
-62308.5
-62444.1
-62538.5
-62504.1
-62165
-61186.3
-58961.7
-54466
-46154.9
-32208.9
-11815.1
-50481.9
-50485.5
-50492.9
-50503.9
-50518.3
-50535
-50551.5
-50562.2
-50556.3
-50513
-50395
-50136.1
-49622.3
-48663.1
-46951.1
-44016.5
-39202.3
-31732
-21010.9
-7315.4
-40949.8
-40949
-40946.9
-40942.4
-40933.2
-40915.3
-40882.4
-40823.5
-40720.8
-40545.4
-40251.3
-39765.8
-38977.2
-37718.7
-35751.9
-32759.2
-28366.5
-22232.3
-14247.1
-4834.87
-32931.3
-32927
-32917.3
-32900.4
-32872.6
-32828.4
-32758.9
-32650.4
-32482.2
-32223.1
-31826.8
-31226
-30325.3
-28994.7
-27066.6
-24344.2
-20632.7
-15806.8
-9919.74
-3320.4
-26243.5
-26236.5
-26221.4
-26195.6
-26155
-26093.1
-26000.2
-25861.8
-25657.2
-25356.9
-24919.2
-24287.8
-23387.7
-22125
-20389.3
-18066.4
-15064
-11354.1
-7027.1
-2333.17
-20716.9
-20708.2
-20689.6
-20658.6
-20610.6
-20539.2
-20434.6
-20283.4
-20066.4
-19757.9
-19323.3
-18718.2
-17887.2
-16765.8
-15285
-13382.3
-11019.4
-8207.42
-5031.16
-1661.8
-16194.5
-16185.1
-16165
-16131.7
-16081.1
-16006.9
-15900.3
-15749.4
-15537.7
-15244.1
-14841.3
-14296
-13568.9
-12617.5
-11400.3
-9885.34
-8061.31
-5951.17
-3623.13
-1192.47
-12532.2
-12522.7
-12502.6
-12469.6
-12419.9
-12348.1
-12246.5
-12105.1
-11910.4
-11645.8
-11290.6
-10820.6
-10209.1
-9428.77
-8455.77
-7275.11
-5887.68
-4317.28
-2615.1
-858.49
-9598.15
-9589.16
-9570.21
-9539.28
-9493.13
-9427.15
-9335.07
-9208.65
-9037.48
-8808.75
-8507.33
-8116.22
-7617.55
-6994.4
-6233.56
-5329.18
-4286.8
-3126.96
-1886.8
-618.211
-7273.72
-7265.59
-7248.49
-7220.75
-7179.7
-7121.58
-7041.37
-6932.65
-6787.46
-6596.33
-6348.42
-6032.07
-5635.61
-5148.81
-4564.76
-3882.14
-3107.6
-2257.43
-1358.04
-444.302
-5453.22
-5446.13
-5431.27
-5407.29
-5372.06
-5322.61
-5255.05
-5164.49
-5045.02
-4889.79
-4691.2
-4441.41
-4132.95
-3759.8
-3318.62
-2810.15
-2240.55
-1622.18
-973.556
-318.138
-4043.97
-4037.98
-4025.48
-4005.4
-3976.08
-3935.25
-3879.96
-3806.58
-3710.82
-3587.81
-3432.35
-3239.22
-3003.75
-2722.49
-2394.04
-2019.91
-1605.21
-1159.04
-694.262
-226.655
-2965.95
-2961.04
-2950.81
-2934.45
-2910.71
-2877.87
-2833.76
-2775.74
-2700.74
-2605.38
-2486.14
-2339.61
-2162.92
-1954.16
-1712.93
-1440.84
-1141.9
-822.66
-491.995
-160.496
-2151.16
-2147.23
-2139.08
-2126.08
-2107.31
-2081.52
-2047.13
-2002.25
-1944.74
-1872.27
-1782.49
-1673.22
-1542.72
-1389.97
-1215.06
-1019.41
-806.053
-579.622
-346.191
-112.859
-1542.75
-1539.68
-1533.32
-1523.23
-1508.72
-1488.9
-1462.65
-1428.62
-1385.36
-1331.28
-1264.84
-1184.66
-1089.69
-979.444
-854.17
-715.05
-564.294
-405.138
-241.711
-78.7553
-1093.95
-1091.61
-1086.76
-1079.08
-1068.1
-1053.17
-1033.51
-1008.19
-976.225
-936.555
-888.176
-830.221
-762.083
-683.542
-594.897
-497.059
-391.61
-280.783
-167.363
-54.5057
-766.933
-765.176
-761.549
-755.826
-747.667
-736.63
-722.171
-703.666
-680.44
-651.804
-617.11
-575.823
-527.594
-472.348
-410.36
-342.307
-269.302
-192.868
-114.869
-37.395
-531.558
-530.266
-527.604
-523.414
-517.463
-509.447
-498.995
-485.691
-469.084
-448.728
-424.211
-395.204
-361.514
-323.134
-280.29
-233.473
-183.452
-131.254
-78.1193
-25.4227
-364.218
-363.285
-361.366
-358.352
-354.085
-348.36
-340.928
-331.513
-319.82
-305.562
-288.479
-268.373
-245.139
-218.8
-189.53
-157.675
-123.76
-88.4702
-52.6241
-17.1207
-246.705
-246.043
-244.682
-242.55
-239.541
-235.517
-230.315
-223.753
-215.641
-205.795
-194.054
-180.3
-164.478
-146.619
-126.851
-105.415
-82.6621
-59.0472
-35.1045
-11.418
-165.193
-164.731
-163.781
-162.297
-160.208
-157.424
-153.837
-149.33
-143.782
-137.077
-129.115
-119.826
-109.185
-97.2192
-84.0213
-69.7548
-54.6535
-39.0145
-23.1843
-7.53913
-109.345
-109.027
-108.375
-107.358
-105.929
-104.031
-101.594
-98.5428
-94.8007
-90.2952
-84.966
-78.7726
-71.7027
-63.7799
-55.0688
-45.6789
-35.7635
-25.515
-15.1562
-4.92758
-71.5472
-71.3319
-70.891
-70.2042
-69.2418
-67.9664
-66.3339
-64.2968
-61.8068
-58.8193
-55.2979
-51.2194
-46.5789
-41.3945
-35.7103
-29.5985
-23.1585
-16.5137
-9.80586
-3.18752
-46.2781
-46.1345
-45.8406
-45.3836
-44.7445
-43.8996
-42.8212
-41.4794
-39.8445
-37.8892
-35.5916
-32.9388
-29.9293
-26.5762
-22.9093
-18.9754
-14.8381
-10.5758
-6.27795
-2.04042
-29.5903
-29.4959
-29.3028
-29.0029
-28.5845
-28.0324
-27.3296
-26.4576
-25.3981
-24.1345
-22.6541
-20.9495
-19.0209
-16.8775
-14.5387
-12.0347
-9.40583
-6.70122
-3.97685
-1.29235
-18.7033
-18.6421
-18.517
-18.3229
-18.0526
-17.6968
-17.2449
-16.6855
-16.0076
-15.2014
-14.2592
-13.177
-11.9557
-10.6013
-9.12661
-7.55055
-5.89841
-4.20081
-2.49235
-0.80984
-11.6866
-11.6474
-11.5675
-11.4436
-11.2714
-11.0451
-10.7582
-10.404
-9.97575
-9.46763
-8.87527
-8.19651
-7.43209
-6.58619
-5.66681
-4.68586
-3.65899
-2.60505
-1.54524
-0.502041
-7.2188
-7.19409
-7.14369
-7.06569
-6.95735
-6.81527
-6.63554
-6.41407
-6.1469
-5.8306
-5.46267
-5.04196
-4.5691
-4.04683
-3.48014
-2.8764
-2.2452
-1.59802
-0.947706
-0.307875
-4.4082
-4.39281
-4.36145
-4.31296
-4.24571
-4.15765
-4.04646
-3.90971
-3.74509
-3.55058
-3.32477
-3.06707
-2.77797
-2.45919
-2.11383
-1.7464
-1.3627
-0.969635
-0.574939
-0.18676
-2.66126
-2.6518
-2.63253
-2.60278
-2.56156
-2.50767
-2.43974
-2.35635
-2.25614
-2.13796
-2.00102
-1.84502
-1.6703
-1.47795
-1.26985
-1.04873
-0.818053
-0.581947
-0.345005
-0.112061
-1.58838
-1.58264
-1.57095
-1.55293
-1.52798
-1.49541
-1.45443
-1.40419
-1.34393
-1.27298
-1.19091
-1.09757
-0.993193
-0.878444
-0.754466
-0.622873
-0.485727
-0.345459
-0.204773
-0.0665078
-0.937292
-0.933853
-0.926857
-0.916071
-0.901163
-0.881723
-0.857291
-0.827395
-0.791588
-0.7495
-0.700889
-0.645686
-0.584043
-0.516364
-0.443329
-0.365889
-0.285251
-0.202835
-0.120215
-0.039042
-0.546844
-0.544809
-0.540672
-0.534298
-0.525497
-0.514034
-0.499648
-0.482068
-0.461044
-0.436369
-0.407911
-0.375638
-0.339648
-0.300183
-0.257639
-0.212573
-0.165684
-0.117792
-0.0698039
-0.0226687
-0.315445
-0.314256
-0.31184
-0.308119
-0.302987
-0.29631
-0.28794
-0.277725
-0.265526
-0.251229
-0.234761
-0.216111
-0.195337
-0.172582
-0.148078
-0.122144
-0.0951803
-0.0676563
-0.0400887
-0.0130181
-0.179901
-0.179215
-0.177821
-0.175676
-0.172719
-0.168876
-0.164065
-0.158201
-0.151206
-0.143018
-0.133599
-0.122945
-0.111091
-0.09812
-0.0841648
-0.0694071
-0.0540742
-0.0384311
-0.0227694
-0.0073936
-0.101407
-0.101016
-0.100222
-0.099
-0.0973177
-0.0951335
-0.0924015
-0.0890756
-0.0851131
-0.0804802
-0.075157
-0.0691421
-0.0624569
-0.0551489
-0.047293
-0.0389917
-0.0303722
-0.0215827
-0.0127859
-0.00415163
-0.0564321
-0.0562122
-0.0557657
-0.0550795
-0.0541352
-0.0529103
-0.0513798
-0.0495184
-0.0473032
-0.044716
-0.0417466
-0.0383947
-0.0346728
-0.0306078
-0.0262415
-0.0216309
-0.0168462
-0.0119695
-0.00709028
-0.00230215
-0.0308705
-0.0307491
-0.0305026
-0.0301241
-0.0296035
-0.0289287
-0.0280863
-0.0270628
-0.025846
-0.0244263
-0.0227983
-0.0209624
-0.0189257
-0.0167029
-0.0143171
-0.0117993
-0.00918796
-0.00652739
-0.00386628
-0.00125531
-0.0163369
-0.0162721
-0.0161406
-0.0159388
-0.0156614
-0.0153022
-0.014854
-0.01431
-0.0136637
-0.0129104
-0.0120472
-0.0110746
-0.00999642
-0.00882057
-0.00755926
-0.00622889
-0.00484968
-0.003445
-0.00204039
-0.000662457
-0.00783922
-0.00780795
-0.00774449
-0.0076471
-0.00751331
-0.00734011
-0.0071242
-0.00686225
-0.0065513
-0.00618904
-0.00577427
-0.00530718
-0.00478969
-0.00422562
-0.00362085
-0.00298324
-0.00232245
-0.00164963
-0.000976988
-0.000317194
-0.00231579
-0.00230651
-0.0022877
-0.00225885
-0.00221921
-0.00216791
-0.00210398
-0.00202645
-0.00193445
-0.00182732
-0.00170469
-0.00156664
-0.00141375
-0.00124715
-0.00106857
-0.00088034
-0.000685303
-0.000486749
-0.000288267
-9.3589e-05
)
;

boundaryField
{
    topWall
    {
        type            calculated;
        value           uniform 0;
    }
    bottomWall
    {
        type            calculated;
        value           nonuniform List<scalar> 
20
(
-139556
-139581
-139634
-139723
-139860
-140062
-140359
-140791
-141421
-142344
-143704
-145732
-148805
-153572
-161227
-174196
-198066
-247939
-371985
-746305
)
;
    }
    sideWallL
    {
        type            symmetry;
    }
    sideWallR
    {
        type            calculated;
        value           nonuniform List<scalar> 
45
(
-468981
-128045
-46176.5
-21339.5
-11815.1
-7315.4
-4834.87
-3320.4
-2333.17
-1661.8
-1192.47
-858.49
-618.211
-444.302
-318.138
-226.655
-160.496
-112.859
-78.7553
-54.5057
-37.395
-25.4227
-17.1207
-11.418
-7.53913
-4.92758
-3.18752
-2.04042
-1.29235
-0.80984
-0.502041
-0.307875
-0.18676
-0.112061
-0.0665078
-0.039042
-0.0226687
-0.0130181
-0.0073936
-0.00415163
-0.00230215
-0.00125531
-0.000662457
-0.000317194
-9.3589e-05
)
;
    }
    frontAndBack
    {
        type            empty;
    }
}


// ************************************************************************* //
