/*--------------------------------*- C++ -*----------------------------------*\
  =========                 |
  \\      /  F ield         | OpenFOAM: The Open Source CFD Toolbox
   \\    /   O peration     | Website:  https://openfoam.org
    \\  /    A nd           | Version:  7
     \\/     M anipulation  |
\*---------------------------------------------------------------------------*/
FoamFile
{
    version     2.0;
    format      ascii;
    class       volScalarField;
    location    "14";
    object      rhoc;
}
// * * * * * * * * * * * * * * * * * * * * * * * * * * * * * * * * * * * * * //

dimensions      [1 -3 0 0 0 0 0];

internalField   nonuniform List<scalar> 
900
(
8.66102e-17
8.65754e-17
8.65009e-17
8.6376e-17
8.61826e-17
8.5893e-17
8.54655e-17
8.48383e-17
8.39205e-17
8.25783e-17
8.06145e-17
7.77394e-17
7.35293e-17
6.73766e-17
5.84536e-17
4.58046e-17
2.90307e-17
1.09494e-17
8.67265e-19
1.56202e-22
6.42033e-19
6.41205e-19
6.39432e-19
6.36469e-19
6.31908e-19
6.25129e-19
6.15231e-19
6.00941e-19
5.80502e-19
5.51581e-19
5.11256e-19
4.56258e-19
3.83817e-19
2.93702e-19
1.91981e-19
9.53044e-20
2.83924e-20
3.05871e-21
3.75415e-23
4.37272e-27
6.80284e-21
6.78776e-21
6.75557e-21
6.70197e-21
6.61999e-21
6.49925e-21
6.32525e-21
6.07855e-21
5.73461e-21
5.26518e-21
4.64324e-21
3.85457e-21
2.91869e-21
1.91662e-21
1.00457e-21
3.6528e-22
7.23619e-23
5.15645e-24
6.89649e-26
1.11804e-28
1.09726e-22
1.0939e-22
1.08674e-22
1.07487e-22
1.05684e-22
1.03055e-22
9.9315e-23
9.41085e-23
8.70275e-23
7.76844e-23
6.58637e-23
5.17836e-23
3.64265e-23
2.17205e-23
1.01159e-23
3.25248e-24
6.02595e-25
5.06497e-26
1.57278e-27
2.56694e-29
2.82026e-24
2.80977e-24
2.78748e-24
2.75072e-24
2.69522e-24
2.615e-24
2.50229e-24
2.34786e-24
2.14221e-24
1.8782e-24
1.55573e-24
1.18833e-24
8.08778e-25
4.67314e-25
2.14412e-25
7.15024e-26
1.55933e-26
2.03029e-27
1.63876e-28
1.26769e-29
1.18747e-25
1.18261e-25
1.17231e-25
1.15537e-25
1.12995e-25
1.09349e-25
1.04276e-25
9.74122e-26
8.84103e-26
7.70654e-26
6.35037e-26
4.84117e-26
3.31714e-26
1.96744e-26
9.64149e-27
3.7062e-27
1.06943e-27
2.31511e-28
4.21621e-29
8.62474e-30
8.28472e-27
8.25043e-27
8.17792e-27
8.05914e-27
7.88166e-27
7.62854e-27
7.27883e-27
6.80943e-27
6.19934e-27
5.43745e-27
4.53388e-27
3.53252e-27
2.51699e-27
1.5988e-27
8.81085e-28
4.11765e-28
1.62327e-28
5.58903e-29
1.8539e-29
6.86714e-30
9.56606e-28
9.52929e-28
9.45165e-28
9.32477e-28
9.13578e-28
8.86727e-28
8.49781e-28
8.00386e-28
7.36381e-28
6.56519e-28
5.6149e-28
4.55028e-28
3.44494e-28
2.4008e-28
1.5209e-28
8.71307e-29
4.5604e-29
2.2561e-29
1.11914e-29
5.96013e-30
1.80145e-28
1.79556e-28
1.78314e-28
1.76287e-28
1.73275e-28
1.69004e-28
1.63138e-28
1.553e-28
1.45129e-28
1.32376e-28
1.17036e-28
9.95065e-29
8.06895e-29
6.19462e-29
4.48285e-29
3.06317e-29
1.99831e-29
1.27255e-29
8.16019e-30
5.44268e-30
5.32047e-29
5.30688e-29
5.27825e-29
5.23159e-29
5.16234e-29
5.06426e-29
4.92958e-29
4.74944e-29
4.51483e-29
4.21839e-29
3.85696e-29
3.4347e-29
2.96566e-29
2.47435e-29
1.99265e-29
1.55303e-29
1.18029e-29
8.85814e-30
6.67236e-30
5.12887e-30
2.2908e-29
2.28652e-29
2.27751e-29
2.26285e-29
2.24112e-29
2.21037e-29
2.16816e-29
2.11162e-29
2.03772e-29
1.94367e-29
1.82759e-29
1.68933e-29
1.5313e-29
1.35893e-29
1.18046e-29
1.00568e-29
8.44074e-30
7.02847e-30
5.85761e-30
4.93113e-30
1.30889e-29
1.30717e-29
1.30355e-29
1.29766e-29
1.28895e-29
1.27664e-29
1.25976e-29
1.23715e-29
1.20752e-29
1.16964e-29
1.12247e-29
1.0655e-29
9.99033e-30
9.24428e-30
8.44177e-30
7.617e-30
6.80859e-30
6.05311e-30
5.37909e-30
4.8035e-30
9.08561e-30
9.07731e-30
9.05986e-30
9.03155e-30
8.98975e-30
8.93083e-30
8.85017e-30
8.74224e-30
8.60086e-30
8.41967e-30
8.19298e-30
7.91688e-30
7.59053e-30
7.21738e-30
6.80593e-30
6.36957e-30
5.92527e-30
5.49142e-30
5.08511e-30
4.71991e-30
7.16536e-30
7.16082e-30
7.15128e-30
7.13584e-30
7.11311e-30
7.08116e-30
7.03755e-30
6.97934e-30
6.90323e-30
6.80572e-30
6.68355e-30
6.53415e-30
6.35631e-30
6.15074e-30
5.92065e-30
5.67178e-30
5.41219e-30
5.15141e-30
4.89927e-30
4.6647e-30
6.13613e-30
6.13343e-30
6.12775e-30
6.11859e-30
6.10514e-30
6.08631e-30
6.0607e-30
6.02664e-30
5.98223e-30
5.92548e-30
5.85443e-30
5.7675e-30
5.66371e-30
5.5431e-30
5.40695e-30
5.25798e-30
5.10026e-30
4.93895e-30
4.7797e-30
4.62811e-30
5.54203e-30
5.54033e-30
5.53676e-30
5.53102e-30
5.52262e-30
5.5109e-30
5.49503e-30
5.47402e-30
5.44673e-30
5.41198e-30
5.3686e-30
5.3156e-30
5.25232e-30
5.17865e-30
5.09516e-30
5.00324e-30
4.90508e-30
4.80355e-30
4.702e-30
4.60383e-30
5.18205e-30
5.18094e-30
5.17862e-30
5.1749e-30
5.16947e-30
5.16193e-30
5.15177e-30
5.13838e-30
5.12107e-30
5.09912e-30
5.07181e-30
5.03855e-30
4.99892e-30
4.95281e-30
4.90049e-30
4.84274e-30
4.78079e-30
4.71631e-30
4.65126e-30
4.58776e-30
4.95712e-30
4.95638e-30
4.95484e-30
4.95238e-30
4.94881e-30
4.94386e-30
4.93723e-30
4.92853e-30
4.91735e-30
4.90323e-30
4.88575e-30
4.86453e-30
4.83933e-30
4.81006e-30
4.7769e-30
4.74027e-30
4.7009e-30
4.65978e-30
4.61811e-30
4.57716e-30
4.81394e-30
4.81345e-30
4.81242e-30
4.81078e-30
4.8084e-30
4.80513e-30
4.80076e-30
4.79506e-30
4.78777e-30
4.77861e-30
4.76732e-30
4.75368e-30
4.73754e-30
4.71885e-30
4.69771e-30
4.6744e-30
4.64933e-30
4.62312e-30
4.59648e-30
4.5702e-30
4.7219e-30
4.72157e-30
4.72088e-30
4.71978e-30
4.7182e-30
4.71603e-30
4.71315e-30
4.7094e-30
4.70464e-30
4.69868e-30
4.69138e-30
4.68259e-30
4.67224e-30
4.66029e-30
4.64681e-30
4.63198e-30
4.61604e-30
4.59938e-30
4.58242e-30
4.56566e-30
4.66251e-30
4.66229e-30
4.66183e-30
4.6611e-30
4.66005e-30
4.65861e-30
4.65671e-30
4.65426e-30
4.65115e-30
4.64729e-30
4.64257e-30
4.63692e-30
4.6303e-30
4.62268e-30
4.61411e-30
4.6047e-30
4.59461e-30
4.58407e-30
4.57334e-30
4.56272e-30
4.62421e-30
4.62406e-30
4.62375e-30
4.62327e-30
4.62258e-30
4.62163e-30
4.62039e-30
4.61879e-30
4.61678e-30
4.61428e-30
4.61125e-30
4.60764e-30
4.60342e-30
4.59858e-30
4.59316e-30
4.58723e-30
4.58088e-30
4.57425e-30
4.5675e-30
4.56083e-30
4.59959e-30
4.59949e-30
4.59929e-30
4.59897e-30
4.59852e-30
4.59791e-30
4.5971e-30
4.59606e-30
4.59477e-30
4.59317e-30
4.59124e-30
4.58894e-30
4.58627e-30
4.58322e-30
4.57982e-30
4.5761e-30
4.57213e-30
4.56799e-30
4.56378e-30
4.55962e-30
4.58386e-30
4.5838e-30
4.58367e-30
4.58346e-30
4.58317e-30
4.58277e-30
4.58225e-30
4.58159e-30
4.58076e-30
4.57974e-30
4.57852e-30
4.57708e-30
4.5754e-30
4.57349e-30
4.57137e-30
4.56906e-30
4.5666e-30
4.56403e-30
4.56143e-30
4.55885e-30
4.57388e-30
4.57384e-30
4.57376e-30
4.57362e-30
4.57344e-30
4.57318e-30
4.57285e-30
4.57243e-30
4.57191e-30
4.57127e-30
4.5705e-30
4.5696e-30
4.56856e-30
4.56738e-30
4.56607e-30
4.56464e-30
4.56312e-30
4.56155e-30
4.55995e-30
4.55837e-30
4.5676e-30
4.56758e-30
4.56753e-30
4.56744e-30
4.56732e-30
4.56716e-30
4.56695e-30
4.56669e-30
4.56636e-30
4.56596e-30
4.56549e-30
4.56493e-30
4.56429e-30
4.56356e-30
4.56276e-30
4.56189e-30
4.56096e-30
4.56001e-30
4.55904e-30
4.55808e-30
4.56369e-30
4.56367e-30
4.56364e-30
4.56359e-30
4.56351e-30
4.56341e-30
4.56328e-30
4.56312e-30
4.56292e-30
4.56267e-30
4.56238e-30
4.56204e-30
4.56165e-30
4.56121e-30
4.56072e-30
4.56019e-30
4.55963e-30
4.55905e-30
4.55847e-30
4.55789e-30
4.56127e-30
4.56126e-30
4.56124e-30
4.56121e-30
4.56116e-30
4.5611e-30
4.56102e-30
4.56092e-30
4.5608e-30
4.56065e-30
4.56047e-30
4.56026e-30
4.56003e-30
4.55976e-30
4.55947e-30
4.55915e-30
4.55882e-30
4.55847e-30
4.55812e-30
4.55778e-30
4.5598e-30
4.55979e-30
4.55978e-30
4.55976e-30
4.55973e-30
4.55969e-30
4.55964e-30
4.55958e-30
4.55951e-30
4.55942e-30
4.55931e-30
4.55919e-30
4.55904e-30
4.55889e-30
4.55871e-30
4.55852e-30
4.55833e-30
4.55812e-30
4.55791e-30
4.55771e-30
4.5589e-30
4.5589e-30
4.55889e-30
4.55888e-30
4.55886e-30
4.55884e-30
4.55881e-30
4.55877e-30
4.55873e-30
4.55867e-30
4.55861e-30
4.55854e-30
4.55845e-30
4.55836e-30
4.55826e-30
4.55815e-30
4.55803e-30
4.55791e-30
4.55779e-30
4.55767e-30
4.55837e-30
4.55836e-30
4.55836e-30
4.55835e-30
4.55834e-30
4.55833e-30
4.55831e-30
4.55829e-30
4.55826e-30
4.55823e-30
4.55819e-30
4.55815e-30
4.5581e-30
4.55805e-30
4.55799e-30
4.55792e-30
4.55785e-30
4.55779e-30
4.55772e-30
4.55765e-30
4.55805e-30
4.55805e-30
4.55804e-30
4.55804e-30
4.55803e-30
4.55803e-30
4.55802e-30
4.558e-30
4.55799e-30
4.55797e-30
4.55795e-30
4.55792e-30
4.55789e-30
4.55786e-30
4.55783e-30
4.55779e-30
4.55775e-30
4.55771e-30
4.55767e-30
4.55763e-30
4.55786e-30
4.55786e-30
4.55786e-30
4.55786e-30
4.55785e-30
4.55785e-30
4.55784e-30
4.55784e-30
4.55783e-30
4.55782e-30
4.5578e-30
4.55779e-30
4.55777e-30
4.55775e-30
4.55774e-30
4.55771e-30
4.55769e-30
4.55767e-30
4.55765e-30
4.55762e-30
4.55775e-30
4.55775e-30
4.55775e-30
4.55775e-30
4.55775e-30
4.55775e-30
4.55774e-30
4.55774e-30
4.55773e-30
4.55773e-30
4.55772e-30
4.55771e-30
4.5577e-30
4.55769e-30
4.55768e-30
4.55767e-30
4.55766e-30
4.55764e-30
4.55763e-30
4.55762e-30
4.55769e-30
4.55769e-30
4.55769e-30
4.55769e-30
4.55769e-30
4.55769e-30
4.55769e-30
4.55768e-30
4.55768e-30
4.55768e-30
4.55767e-30
4.55767e-30
4.55766e-30
4.55766e-30
4.55765e-30
4.55764e-30
4.55764e-30
4.55763e-30
4.55762e-30
4.55762e-30
4.55766e-30
4.55766e-30
4.55766e-30
4.55766e-30
4.55766e-30
4.55765e-30
4.55765e-30
4.55765e-30
4.55765e-30
4.55765e-30
4.55765e-30
4.55764e-30
4.55764e-30
4.55764e-30
4.55763e-30
4.55763e-30
4.55763e-30
4.55762e-30
4.55762e-30
4.55761e-30
4.55764e-30
4.55764e-30
4.55764e-30
4.55764e-30
4.55764e-30
4.55764e-30
4.55763e-30
4.55763e-30
4.55763e-30
4.55763e-30
4.55763e-30
4.55763e-30
4.55763e-30
4.55763e-30
4.55762e-30
4.55762e-30
4.55762e-30
4.55762e-30
4.55762e-30
4.55761e-30
4.55763e-30
4.55763e-30
4.55763e-30
4.55763e-30
4.55763e-30
4.55762e-30
4.55762e-30
4.55762e-30
4.55762e-30
4.55762e-30
4.55762e-30
4.55762e-30
4.55762e-30
4.55762e-30
4.55762e-30
4.55762e-30
4.55762e-30
4.55762e-30
4.55761e-30
4.55761e-30
4.55762e-30
4.55762e-30
4.55762e-30
4.55762e-30
4.55762e-30
4.55762e-30
4.55762e-30
4.55762e-30
4.55762e-30
4.55762e-30
4.55762e-30
4.55762e-30
4.55762e-30
4.55762e-30
4.55762e-30
4.55762e-30
4.55761e-30
4.55761e-30
4.55761e-30
4.55761e-30
4.55762e-30
4.55762e-30
4.55762e-30
4.55762e-30
4.55762e-30
4.55762e-30
4.55762e-30
4.55762e-30
4.55762e-30
4.55762e-30
4.55762e-30
4.55762e-30
4.55761e-30
4.55761e-30
4.55761e-30
4.55761e-30
4.55761e-30
4.55761e-30
4.55761e-30
4.55761e-30
4.55761e-30
4.55761e-30
4.55761e-30
4.55761e-30
4.55761e-30
4.55761e-30
4.55761e-30
4.55761e-30
4.55761e-30
4.55761e-30
4.55761e-30
4.55761e-30
4.55761e-30
4.55761e-30
4.55761e-30
4.55761e-30
4.55761e-30
4.55761e-30
4.55761e-30
4.55761e-30
4.55761e-30
4.55761e-30
4.55761e-30
4.55761e-30
4.55761e-30
4.55761e-30
4.55761e-30
4.55761e-30
4.55761e-30
4.55761e-30
4.55761e-30
4.55761e-30
4.55761e-30
4.55761e-30
4.55761e-30
4.55761e-30
4.55761e-30
4.55761e-30
4.55761e-30
4.55761e-30
4.55761e-30
4.55761e-30
4.55761e-30
4.55761e-30
4.55761e-30
4.55761e-30
4.55761e-30
4.55761e-30
4.55761e-30
4.55761e-30
4.55761e-30
4.55761e-30
4.55761e-30
4.55761e-30
4.55761e-30
4.55761e-30
4.55761e-30
4.55761e-30
4.55761e-30
4.55761e-30
4.55761e-30
4.55761e-30
4.55761e-30
4.55761e-30
4.55761e-30
4.55761e-30
4.55761e-30
4.55761e-30
4.55761e-30
4.55761e-30
4.55761e-30
4.55761e-30
4.55761e-30
4.55761e-30
4.55761e-30
4.55761e-30
4.55761e-30
4.55761e-30
4.55761e-30
4.55761e-30
4.55761e-30
4.55761e-30
4.55761e-30
4.55761e-30
4.55761e-30
4.55761e-30
4.55761e-30
4.55761e-30
4.55761e-30
4.55761e-30
4.55761e-30
4.55761e-30
4.55761e-30
4.55761e-30
4.55761e-30
4.55761e-30
4.55761e-30
4.55761e-30
4.55761e-30
4.55761e-30
)
;

boundaryField
{
    topWall
    {
        type            zeroGradient;
    }
    bottomWall
    {
        type            zeroGradient;
    }
    sideWallL
    {
        type            symmetry;
    }
    sideWallR
    {
        type            zeroGradient;
    }
    frontAndBack
    {
        type            empty;
    }
}


// ************************************************************************* //
