/*--------------------------------*- C++ -*----------------------------------*\
  =========                 |
  \\      /  F ield         | OpenFOAM: The Open Source CFD Toolbox
   \\    /   O peration     | Website:  https://openfoam.org
    \\  /    A nd           | Version:  7
     \\/     M anipulation  |
\*---------------------------------------------------------------------------*/
FoamFile
{
    version     2.0;
    format      ascii;
    class       volScalarField;
    location    "14";
    object      rhog;
}
// * * * * * * * * * * * * * * * * * * * * * * * * * * * * * * * * * * * * * //

dimensions      [1 -3 0 0 0 0 0];

internalField   nonuniform List<scalar> 
900
(
3.94725e-08
3.9463e-08
3.94425e-08
3.94082e-08
3.93552e-08
3.92757e-08
3.91585e-08
3.89863e-08
3.87339e-08
3.83634e-08
3.78177e-08
3.70102e-08
3.58073e-08
3.40001e-08
3.12579e-08
2.70605e-08
2.06681e-08
1.16167e-08
2.59118e-09
1.52745e-11
2.21607e-09
2.21433e-09
2.21062e-09
2.20442e-09
2.19485e-09
2.18061e-09
2.15974e-09
2.12943e-09
2.08564e-09
2.02273e-09
1.93288e-09
1.8058e-09
1.62878e-09
1.38863e-09
1.07801e-09
7.10525e-10
3.45532e-10
9.15554e-11
6.58252e-12
2.73366e-14
1.5144e-10
1.51235e-10
1.50797e-10
1.50068e-10
1.48949e-10
1.47294e-10
1.44892e-10
1.41448e-10
1.3656e-10
1.29709e-10
1.20261e-10
1.07534e-10
9.10043e-11
7.07224e-11
4.80234e-11
2.61945e-11
9.92159e-12
2.02781e-12
1.49285e-13
2.84415e-15
1.31106e-11
1.3086e-11
1.30334e-11
1.2946e-11
1.28127e-11
1.26171e-11
1.23361e-11
1.19385e-11
1.13847e-11
1.06273e-11
9.61697e-12
8.31589e-12
6.72479e-12
4.9229e-12
3.1051e-12
1.56579e-12
5.6518e-13
1.25762e-13
1.49804e-14
1.1272e-15
1.48069e-12
1.47728e-12
1.47003e-12
1.45804e-12
1.43984e-12
1.41334e-12
1.37563e-12
1.32299e-12
1.25089e-12
1.1544e-12
1.02922e-12
8.73596e-13
6.91375e-13
4.95391e-13
3.08515e-13
1.58123e-13
6.23974e-14
1.78185e-14
3.70552e-15
7.19638e-16
2.2205e-13
2.21482e-13
2.20276e-13
2.18289e-13
2.1529e-13
2.10953e-13
2.04838e-13
1.96397e-13
1.84995e-13
1.69995e-13
1.50923e-13
1.27757e-13
1.01302e-13
7.35151e-14
4.74283e-14
2.63138e-14
1.21816e-14
4.67191e-15
1.57676e-15
5.62424e-16
4.45264e-14
4.44098e-14
4.41627e-14
4.37568e-14
4.31472e-14
4.22709e-14
4.10448e-14
3.93673e-14
3.71253e-14
3.42099e-14
3.05489e-14
2.61542e-14
2.11802e-14
1.59643e-14
1.10032e-14
6.8258e-15
3.7868e-15
1.91144e-15
9.3159e-16
4.85831e-16
1.192e-14
1.18904e-14
1.18279e-14
1.17255e-14
1.15723e-14
1.13531e-14
1.10483e-14
1.06341e-14
1.00844e-14
9.37448e-15
8.48812e-15
7.42722e-15
6.22319e-15
4.94451e-15
3.69262e-15
2.58003e-15
1.69441e-15
1.06762e-15
6.7152e-16
4.43468e-16
4.22143e-15
4.21227e-15
4.19293e-15
4.16134e-15
4.11425e-15
4.04716e-15
3.95427e-15
3.82864e-15
3.66262e-15
3.44894e-15
3.18243e-15
2.86251e-15
2.49597e-15
2.09903e-15
1.6968e-15
1.31914e-15
9.9301e-16
7.34708e-16
5.46309e-16
4.18219e-16
1.93874e-15
1.93534e-15
1.92819e-15
1.91652e-15
1.89917e-15
1.87454e-15
1.84056e-15
1.79474e-15
1.73436e-15
1.65673e-15
1.55976e-15
1.4427e-15
1.30697e-15
1.1569e-15
9.99771e-16
8.44943e-16
7.02034e-16
5.78652e-16
4.78772e-16
4.02461e-16
1.11469e-15
1.11322e-15
1.11013e-15
1.1051e-15
1.09763e-15
1.08707e-15
1.07253e-15
1.05299e-15
1.02728e-15
9.94231e-16
9.52854e-16
9.02603e-16
8.43684e-16
7.77331e-16
7.0592e-16
6.32798e-16
5.6179e-16
4.96482e-16
4.39543e-16
3.92337e-16
7.64911e-16
7.64189e-16
7.6267e-16
7.60204e-16
7.56557e-16
7.51409e-16
7.44348e-16
7.34877e-16
7.22438e-16
7.06455e-16
6.8641e-16
6.61949e-16
6.33011e-16
5.99954e-16
5.63625e-16
5.2535e-16
4.86787e-16
4.4969e-16
4.15619e-16
3.85712e-16
5.96268e-16
5.95875e-16
5.95051e-16
5.93716e-16
5.91747e-16
5.88975e-16
5.85184e-16
5.80114e-16
5.73471e-16
5.64944e-16
5.54245e-16
5.4115e-16
5.25566e-16
5.07586e-16
4.87536e-16
4.65985e-16
4.4371e-16
4.21604e-16
4.00556e-16
3.81331e-16
5.06739e-16
5.06509e-16
5.06026e-16
5.05246e-16
5.04099e-16
5.0249e-16
5.00297e-16
4.97375e-16
4.93555e-16
4.88664e-16
4.82531e-16
4.75019e-16
4.6605e-16
4.55641e-16
4.43923e-16
4.31162e-16
4.17745e-16
4.04146e-16
3.90876e-16
3.78416e-16
4.55742e-16
4.556e-16
4.55302e-16
4.5482e-16
4.54115e-16
4.53129e-16
4.51791e-16
4.50013e-16
4.47699e-16
4.44745e-16
4.41048e-16
4.36524e-16
4.31119e-16
4.24827e-16
4.17708e-16
4.09892e-16
4.01584e-16
3.93047e-16
3.84577e-16
3.76472e-16
4.25209e-16
4.25117e-16
4.24926e-16
4.24617e-16
4.24167e-16
4.2354e-16
4.22692e-16
4.21572e-16
4.20118e-16
4.1827e-16
4.15965e-16
4.1315e-16
4.09791e-16
4.05878e-16
4.01441e-16
3.9655e-16
3.91316e-16
3.85892e-16
3.80451e-16
3.75177e-16
4.06292e-16
4.06232e-16
4.06106e-16
4.05903e-16
4.05609e-16
4.052e-16
4.04651e-16
4.03927e-16
4.02994e-16
4.01811e-16
4.00342e-16
3.98555e-16
3.96426e-16
3.9395e-16
3.91142e-16
3.88041e-16
3.84712e-16
3.81243e-16
3.77741e-16
3.74316e-16
3.94308e-16
3.94268e-16
3.94184e-16
3.94049e-16
3.93854e-16
3.93584e-16
3.93223e-16
3.9275e-16
3.92142e-16
3.91376e-16
3.90428e-16
3.89279e-16
3.87916e-16
3.86334e-16
3.84542e-16
3.82563e-16
3.80436e-16
3.78214e-16
3.75961e-16
3.73747e-16
3.86613e-16
3.86586e-16
3.8653e-16
3.8644e-16
3.86309e-16
3.8613e-16
3.85891e-16
3.8558e-16
3.85182e-16
3.84682e-16
3.84068e-16
3.83326e-16
3.82448e-16
3.81434e-16
3.80286e-16
3.79022e-16
3.77662e-16
3.76241e-16
3.74796e-16
3.73372e-16
3.81639e-16
3.8162e-16
3.81582e-16
3.81522e-16
3.81435e-16
3.81316e-16
3.81158e-16
3.80953e-16
3.80692e-16
3.80366e-16
3.79967e-16
3.79488e-16
3.78923e-16
3.78272e-16
3.77539e-16
3.76731e-16
3.75865e-16
3.74959e-16
3.74037e-16
3.73126e-16
3.78416e-16
3.78404e-16
3.78378e-16
3.78338e-16
3.7828e-16
3.78201e-16
3.78097e-16
3.77962e-16
3.77792e-16
3.7758e-16
3.77322e-16
3.77013e-16
3.76651e-16
3.76235e-16
3.75767e-16
3.75254e-16
3.74704e-16
3.7413e-16
3.73545e-16
3.72967e-16
3.76331e-16
3.76323e-16
3.76306e-16
3.7628e-16
3.76241e-16
3.76189e-16
3.76121e-16
3.76033e-16
3.75922e-16
3.75786e-16
3.75619e-16
3.75422e-16
3.7519e-16
3.74926e-16
3.7463e-16
3.74305e-16
3.73958e-16
3.73596e-16
3.73228e-16
3.72864e-16
3.74988e-16
3.74983e-16
3.74972e-16
3.74954e-16
3.74929e-16
3.74896e-16
3.74851e-16
3.74794e-16
3.74723e-16
3.74635e-16
3.74529e-16
3.74403e-16
3.74257e-16
3.7409e-16
3.73903e-16
3.737e-16
3.73482e-16
3.73256e-16
3.73026e-16
3.72798e-16
3.74129e-16
3.74125e-16
3.74118e-16
3.74107e-16
3.7409e-16
3.74068e-16
3.7404e-16
3.74003e-16
3.73958e-16
3.73902e-16
3.73835e-16
3.73755e-16
3.73663e-16
3.73559e-16
3.73442e-16
3.73316e-16
3.73181e-16
3.7304e-16
3.72898e-16
3.72756e-16
3.73582e-16
3.7358e-16
3.73576e-16
3.73568e-16
3.73558e-16
3.73544e-16
3.73526e-16
3.73502e-16
3.73474e-16
3.73438e-16
3.73396e-16
3.73347e-16
3.73289e-16
3.73224e-16
3.73152e-16
3.73074e-16
3.72991e-16
3.72904e-16
3.72817e-16
3.7273e-16
3.73238e-16
3.73237e-16
3.73234e-16
3.73229e-16
3.73223e-16
3.73214e-16
3.73202e-16
3.73188e-16
3.7317e-16
3.73148e-16
3.73122e-16
3.73091e-16
3.73055e-16
3.73015e-16
3.72971e-16
3.72923e-16
3.72873e-16
3.7282e-16
3.72767e-16
3.72714e-16
3.73023e-16
3.73022e-16
3.73021e-16
3.73018e-16
3.73013e-16
3.73008e-16
3.73001e-16
3.72992e-16
3.72981e-16
3.72967e-16
3.72951e-16
3.72932e-16
3.72911e-16
3.72886e-16
3.72859e-16
3.7283e-16
3.728e-16
3.72768e-16
3.72736e-16
3.72704e-16
3.7289e-16
3.7289e-16
3.72889e-16
3.72887e-16
3.72884e-16
3.72881e-16
3.72876e-16
3.72871e-16
3.72864e-16
3.72856e-16
3.72846e-16
3.72835e-16
3.72822e-16
3.72807e-16
3.72791e-16
3.72773e-16
3.72755e-16
3.72736e-16
3.72717e-16
3.72698e-16
3.72809e-16
3.72809e-16
3.72808e-16
3.72807e-16
3.72805e-16
3.72803e-16
3.72801e-16
3.72797e-16
3.72793e-16
3.72788e-16
3.72782e-16
3.72775e-16
3.72767e-16
3.72759e-16
3.72749e-16
3.72739e-16
3.72728e-16
3.72717e-16
3.72705e-16
3.72694e-16
3.7276e-16
3.7276e-16
3.72759e-16
3.72758e-16
3.72758e-16
3.72756e-16
3.72755e-16
3.72753e-16
3.7275e-16
3.72747e-16
3.72744e-16
3.7274e-16
3.72735e-16
3.7273e-16
3.72724e-16
3.72718e-16
3.72712e-16
3.72705e-16
3.72698e-16
3.72692e-16
3.7273e-16
3.7273e-16
3.7273e-16
3.72729e-16
3.72729e-16
3.72728e-16
3.72727e-16
3.72726e-16
3.72724e-16
3.72723e-16
3.72721e-16
3.72718e-16
3.72716e-16
3.72712e-16
3.72709e-16
3.72706e-16
3.72702e-16
3.72698e-16
3.72694e-16
3.7269e-16
3.72713e-16
3.72713e-16
3.72712e-16
3.72712e-16
3.72712e-16
3.72711e-16
3.72711e-16
3.7271e-16
3.72709e-16
3.72708e-16
3.72707e-16
3.72706e-16
3.72704e-16
3.72702e-16
3.727e-16
3.72698e-16
3.72696e-16
3.72694e-16
3.72692e-16
3.7269e-16
3.72702e-16
3.72702e-16
3.72702e-16
3.72702e-16
3.72702e-16
3.72702e-16
3.72701e-16
3.72701e-16
3.727e-16
3.727e-16
3.72699e-16
3.72698e-16
3.72697e-16
3.72696e-16
3.72695e-16
3.72694e-16
3.72693e-16
3.72692e-16
3.7269e-16
3.72689e-16
3.72696e-16
3.72696e-16
3.72696e-16
3.72696e-16
3.72696e-16
3.72696e-16
3.72696e-16
3.72696e-16
3.72695e-16
3.72695e-16
3.72694e-16
3.72694e-16
3.72694e-16
3.72693e-16
3.72692e-16
3.72692e-16
3.72691e-16
3.7269e-16
3.7269e-16
3.72689e-16
3.72693e-16
3.72693e-16
3.72693e-16
3.72693e-16
3.72693e-16
3.72693e-16
3.72693e-16
3.72692e-16
3.72692e-16
3.72692e-16
3.72692e-16
3.72692e-16
3.72691e-16
3.72691e-16
3.72691e-16
3.7269e-16
3.7269e-16
3.72689e-16
3.72689e-16
3.72689e-16
3.72691e-16
3.72691e-16
3.72691e-16
3.72691e-16
3.72691e-16
3.72691e-16
3.72691e-16
3.72691e-16
3.72691e-16
3.7269e-16
3.7269e-16
3.7269e-16
3.7269e-16
3.7269e-16
3.7269e-16
3.72689e-16
3.72689e-16
3.72689e-16
3.72689e-16
3.72689e-16
3.7269e-16
3.7269e-16
3.7269e-16
3.7269e-16
3.7269e-16
3.7269e-16
3.7269e-16
3.7269e-16
3.7269e-16
3.7269e-16
3.7269e-16
3.72689e-16
3.72689e-16
3.72689e-16
3.72689e-16
3.72689e-16
3.72689e-16
3.72689e-16
3.72689e-16
3.72689e-16
3.72689e-16
3.72689e-16
3.72689e-16
3.72689e-16
3.72689e-16
3.72689e-16
3.72689e-16
3.72689e-16
3.72689e-16
3.72689e-16
3.72689e-16
3.72689e-16
3.72689e-16
3.72689e-16
3.72689e-16
3.72689e-16
3.72689e-16
3.72689e-16
3.72689e-16
3.72689e-16
3.72689e-16
3.72689e-16
3.72689e-16
3.72689e-16
3.72689e-16
3.72689e-16
3.72689e-16
3.72689e-16
3.72689e-16
3.72689e-16
3.72689e-16
3.72689e-16
3.72689e-16
3.72689e-16
3.72689e-16
3.72689e-16
3.72689e-16
3.72689e-16
3.72689e-16
3.72689e-16
3.72689e-16
3.72689e-16
3.72689e-16
3.72689e-16
3.72689e-16
3.72689e-16
3.72689e-16
3.72689e-16
3.72689e-16
3.72689e-16
3.72689e-16
3.72689e-16
3.72689e-16
3.72689e-16
3.72689e-16
3.72689e-16
3.72689e-16
3.72689e-16
3.72689e-16
3.72689e-16
3.72689e-16
3.72689e-16
3.72689e-16
3.72689e-16
3.72689e-16
3.72689e-16
3.72689e-16
3.72689e-16
3.72689e-16
3.72689e-16
3.72689e-16
3.72689e-16
3.72689e-16
3.72689e-16
3.72689e-16
3.72689e-16
3.72689e-16
3.72689e-16
3.72689e-16
3.72688e-16
3.72689e-16
3.72689e-16
3.72689e-16
3.72689e-16
3.72689e-16
3.72689e-16
3.72689e-16
3.72689e-16
3.72689e-16
3.72689e-16
3.72689e-16
3.72689e-16
3.72689e-16
3.72689e-16
3.72689e-16
3.72689e-16
3.72689e-16
3.72689e-16
3.72689e-16
3.72688e-16
3.72689e-16
3.72689e-16
3.72689e-16
3.72689e-16
3.72689e-16
3.72689e-16
3.72689e-16
3.72689e-16
3.72689e-16
3.72689e-16
3.72689e-16
3.72689e-16
3.72689e-16
3.72689e-16
3.72689e-16
3.72689e-16
3.72689e-16
3.72689e-16
3.72688e-16
3.72688e-16
3.72689e-16
3.72689e-16
3.72689e-16
3.72689e-16
3.72689e-16
3.72689e-16
3.72689e-16
3.72689e-16
3.72689e-16
3.72689e-16
3.72689e-16
3.72689e-16
3.72689e-16
3.72689e-16
3.72689e-16
3.72689e-16
3.72688e-16
3.72688e-16
3.72688e-16
3.72688e-16
3.72689e-16
3.72689e-16
3.72689e-16
3.72689e-16
3.72689e-16
3.72689e-16
3.72689e-16
3.72689e-16
3.72689e-16
3.72689e-16
3.72689e-16
3.72689e-16
3.72689e-16
3.72689e-16
3.72688e-16
3.72688e-16
3.72688e-16
3.72688e-16
3.72688e-16
3.72688e-16
)
;

boundaryField
{
    topWall
    {
        type            calculated;
        value           uniform 0;
    }
    bottomWall
    {
        type            zeroGradient;
    }
    sideWallL
    {
        type            symmetry;
    }
    sideWallR
    {
        type            calculated;
        value           uniform 0;
    }
    frontAndBack
    {
        type            empty;
    }
}


// ************************************************************************* //
