/*--------------------------------*- C++ -*----------------------------------*\
  =========                 |
  \\      /  F ield         | OpenFOAM: The Open Source CFD Toolbox
   \\    /   O peration     | Website:  https://openfoam.org
    \\  /    A nd           | Version:  7
     \\/     M anipulation  |
\*---------------------------------------------------------------------------*/
FoamFile
{
    version     2.0;
    format      ascii;
    class       volScalarField;
    location    "14";
    object      rhois;
}
// * * * * * * * * * * * * * * * * * * * * * * * * * * * * * * * * * * * * * //

dimensions      [1 -3 0 0 0 0 0];

internalField   nonuniform List<scalar> 
900
(
4.24628e-06
4.24557e-06
4.24405e-06
4.24149e-06
4.23753e-06
4.23158e-06
4.22275e-06
4.20974e-06
4.19056e-06
4.16225e-06
4.12027e-06
4.05762e-06
3.96327e-06
3.81938e-06
3.59618e-06
3.24258e-06
2.6712e-06
1.76383e-06
5.98362e-07
1.50526e-08
5.17866e-07
5.17587e-07
5.16989e-07
5.15986e-07
5.14434e-07
5.12114e-07
5.08694e-07
5.03691e-07
4.96403e-07
4.85816e-07
4.70478e-07
4.48354e-07
4.16672e-07
3.7193e-07
3.10433e-07
2.30409e-07
1.37513e-07
5.31415e-08
8.11993e-09
1.72335e-10
7.33849e-08
7.33168e-08
7.31711e-08
7.29273e-08
7.25518e-08
7.19932e-08
7.11762e-08
6.99934e-08
6.82945e-08
6.58741e-08
6.24616e-08
5.77234e-08
5.12968e-08
4.29014e-08
3.25914e-08
2.11826e-08
1.06245e-08
3.44681e-09
5.50444e-10
3.63307e-11
1.2449e-08
1.2433e-08
1.23989e-08
1.2342e-08
1.22548e-08
1.21258e-08
1.19389e-08
1.16712e-08
1.12925e-08
1.07637e-08
1.00379e-08
9.06581e-09
7.80959e-09
6.27067e-09
4.53245e-09
2.79841e-09
1.36734e-09
4.78557e-10
1.10563e-10
1.93099e-11
2.58548e-09
2.58146e-09
2.5729e-09
2.55866e-09
2.53694e-09
2.50505e-09
2.45919e-09
2.39429e-09
2.30376e-09
2.17964e-09
2.01324e-09
1.79684e-09
1.52725e-09
1.21115e-09
8.71225e-10
5.47761e-10
2.88143e-10
1.22284e-10
4.25207e-11
1.41844e-11
6.67117e-10
6.65982e-10
6.63567e-10
6.59568e-10
6.53494e-10
6.44631e-10
6.31992e-10
6.14282e-10
5.89887e-10
5.56943e-10
5.13569e-10
4.58342e-10
3.91125e-10
3.14152e-10
2.32945e-10
1.56089e-10
9.28441e-11
4.89917e-11
2.38998e-11
1.19528e-11
2.1543e-10
2.15063e-10
2.14283e-10
2.12996e-10
2.1105e-10
2.08227e-10
2.0423e-10
1.98677e-10
1.91105e-10
1.80996e-10
1.67853e-10
1.51334e-10
1.31464e-10
1.08881e-10
8.5014e-11
6.19847e-11
4.20799e-11
2.69111e-11
1.67815e-11
1.07862e-11
8.70222e-11
8.68857e-11
8.65963e-11
8.61201e-11
8.54031e-11
8.43682e-11
8.29119e-11
8.09029e-11
7.81845e-11
7.45851e-11
6.99424e-11
6.41454e-11
5.71958e-11
4.92757e-11
4.07934e-11
3.23604e-11
2.46662e-11
1.82754e-11
1.34501e-11
1.01117e-11
4.34774e-11
4.34195e-11
4.3297e-11
4.30959e-11
4.27941e-11
4.23606e-11
4.17538e-11
4.09214e-11
3.98018e-11
3.83278e-11
3.64353e-11
3.40782e-11
3.12484e-11
2.79984e-11
2.44567e-11
2.0825e-11
1.73458e-11
1.42465e-11
1.16806e-11
9.69786e-12
2.62066e-11
2.6179e-11
2.61206e-11
2.6025e-11
2.5882e-11
2.56774e-11
2.53924e-11
2.50034e-11
2.44826e-11
2.37999e-11
2.29258e-11
2.18378e-11
2.05273e-11
1.90089e-11
1.73265e-11
1.55543e-11
1.37885e-11
1.21294e-11
1.0661e-11
9.43438e-12
1.83876e-11
1.8373e-11
1.83422e-11
1.82919e-11
1.8217e-11
1.81103e-11
1.79622e-11
1.7761e-11
1.74928e-11
1.71424e-11
1.66949e-11
1.61379e-11
1.54651e-11
1.46796e-11
1.37975e-11
1.28487e-11
1.1875e-11
1.0924e-11
1.00414e-11
9.26274e-12
1.44491e-11
1.44407e-11
1.44231e-11
1.43945e-11
1.43519e-11
1.42915e-11
1.4208e-11
1.40951e-11
1.39453e-11
1.37503e-11
1.35019e-11
1.31929e-11
1.28191e-11
1.23803e-11
1.18829e-11
1.13398e-11
1.07707e-11
1.01996e-11
9.65166e-12
9.14935e-12
1.22944e-11
1.22893e-11
1.22786e-11
1.22612e-11
1.22355e-11
1.21991e-11
1.2149e-11
1.20816e-11
1.19926e-11
1.18772e-11
1.17306e-11
1.15487e-11
1.13285e-11
1.10695e-11
1.0774e-11
1.04482e-11
1.0102e-11
9.74817e-12
9.40085e-12
9.07384e-12
1.10406e-11
1.10374e-11
1.10305e-11
1.10195e-11
1.10032e-11
1.09802e-11
1.09488e-11
1.09067e-11
1.08514e-11
1.078e-11
1.06897e-11
1.05779e-11
1.04428e-11
1.02838e-11
1.01018e-11
9.90013e-12
9.68389e-12
9.46017e-12
9.23719e-12
9.02336e-12
1.02778e-11
1.02756e-11
1.02711e-11
1.02639e-11
1.02532e-11
1.02383e-11
1.0218e-11
1.01908e-11
1.01554e-11
1.01098e-11
1.00525e-11
9.9818e-12
9.89657e-12
9.79637e-12
9.68169e-12
9.55421e-12
9.41686e-12
9.27369e-12
9.12955e-12
8.98959e-12
9.79905e-12
9.79761e-12
9.79459e-12
9.78973e-12
9.78262e-12
9.7727e-12
9.75925e-12
9.74143e-12
9.71824e-12
9.68863e-12
9.65153e-12
9.60598e-12
9.55128e-12
9.48712e-12
9.41378e-12
9.33221e-12
9.24413e-12
9.15192e-12
9.0585e-12
8.96703e-12
9.49238e-12
9.4914e-12
9.48935e-12
9.48605e-12
9.48125e-12
9.47459e-12
9.4656e-12
9.45375e-12
9.43842e-12
9.41895e-12
9.39468e-12
9.36503e-12
9.32958e-12
9.28813e-12
9.24086e-12
9.18835e-12
9.13161e-12
9.0721e-12
9.01158e-12
8.95201e-12
9.29345e-12
9.29278e-12
9.29138e-12
9.28913e-12
9.28588e-12
9.28138e-12
9.27535e-12
9.26743e-12
9.25725e-12
9.24438e-12
9.22844e-12
9.20906e-12
9.18598e-12
9.15912e-12
9.12857e-12
9.0947e-12
9.05814e-12
9.01977e-12
8.98067e-12
8.94206e-12
9.16357e-12
9.16311e-12
9.16216e-12
9.16063e-12
9.15843e-12
9.15539e-12
9.15134e-12
9.14605e-12
9.13929e-12
9.13079e-12
9.12031e-12
9.10764e-12
9.09263e-12
9.07523e-12
9.0555e-12
9.03369e-12
9.01018e-12
8.98552e-12
8.96038e-12
8.9355e-12
9.07862e-12
9.0783e-12
9.07765e-12
9.07662e-12
9.07513e-12
9.07309e-12
9.07039e-12
9.06687e-12
9.06239e-12
9.0568e-12
9.04994e-12
9.04168e-12
9.03195e-12
9.02071e-12
9.00802e-12
8.99402e-12
8.97897e-12
8.96321e-12
8.94713e-12
8.93121e-12
9.02313e-12
9.02292e-12
9.02248e-12
9.02179e-12
9.02079e-12
9.01943e-12
9.01763e-12
9.0153e-12
9.01236e-12
9.0087e-12
9.00423e-12
8.99888e-12
8.99261e-12
8.98539e-12
8.97727e-12
8.96834e-12
8.95876e-12
8.94874e-12
8.93853e-12
8.92842e-12
8.98704e-12
8.9869e-12
8.9866e-12
8.98614e-12
8.98548e-12
8.98458e-12
8.98339e-12
8.98187e-12
8.97995e-12
8.97757e-12
8.97468e-12
8.97124e-12
8.96722e-12
8.96262e-12
8.95746e-12
8.95181e-12
8.94575e-12
8.93943e-12
8.93299e-12
8.92662e-12
8.9637e-12
8.96361e-12
8.96341e-12
8.96311e-12
8.96267e-12
8.96208e-12
8.96131e-12
8.96032e-12
8.95908e-12
8.95755e-12
8.9557e-12
8.95351e-12
8.95095e-12
8.94804e-12
8.94479e-12
8.94123e-12
8.93743e-12
8.93348e-12
8.92945e-12
8.92547e-12
8.94872e-12
8.94866e-12
8.94853e-12
8.94833e-12
8.94805e-12
8.94767e-12
8.94717e-12
8.94653e-12
8.94574e-12
8.94476e-12
8.94359e-12
8.9422e-12
8.9406e-12
8.93877e-12
8.93674e-12
8.93452e-12
8.93216e-12
8.9297e-12
8.92721e-12
8.92474e-12
8.93918e-12
8.93914e-12
8.93906e-12
8.93893e-12
8.93875e-12
8.93851e-12
8.93819e-12
8.93778e-12
8.93728e-12
8.93667e-12
8.93593e-12
8.93506e-12
8.93406e-12
8.93292e-12
8.93166e-12
8.9303e-12
8.92884e-12
8.92733e-12
8.92579e-12
8.92428e-12
8.93317e-12
8.93314e-12
8.93309e-12
8.93301e-12
8.93289e-12
8.93274e-12
8.93254e-12
8.93228e-12
8.93197e-12
8.93158e-12
8.93113e-12
8.93059e-12
8.92997e-12
8.92927e-12
8.9285e-12
8.92766e-12
8.92677e-12
8.92585e-12
8.92491e-12
8.92399e-12
8.92941e-12
8.92939e-12
8.92936e-12
8.92931e-12
8.92924e-12
8.92914e-12
8.92901e-12
8.92886e-12
8.92866e-12
8.92842e-12
8.92814e-12
8.92781e-12
8.92743e-12
8.92701e-12
8.92654e-12
8.92603e-12
8.92549e-12
8.92494e-12
8.92437e-12
8.92381e-12
8.92708e-12
8.92707e-12
8.92705e-12
8.92702e-12
8.92698e-12
8.92692e-12
8.92684e-12
8.92674e-12
8.92662e-12
8.92648e-12
8.92631e-12
8.92611e-12
8.92588e-12
8.92562e-12
8.92534e-12
8.92503e-12
8.92471e-12
8.92438e-12
8.92404e-12
8.92371e-12
8.92566e-12
8.92565e-12
8.92564e-12
8.92562e-12
8.92559e-12
8.92556e-12
8.92551e-12
8.92545e-12
8.92538e-12
8.92529e-12
8.92519e-12
8.92507e-12
8.92493e-12
8.92478e-12
8.92461e-12
8.92443e-12
8.92424e-12
8.92404e-12
8.92384e-12
8.92364e-12
8.92479e-12
8.92479e-12
8.92478e-12
8.92477e-12
8.92475e-12
8.92473e-12
8.9247e-12
8.92467e-12
8.92463e-12
8.92457e-12
8.92451e-12
8.92444e-12
8.92436e-12
8.92427e-12
8.92417e-12
8.92406e-12
8.92395e-12
8.92383e-12
8.92372e-12
8.9236e-12
8.92428e-12
8.92427e-12
8.92427e-12
8.92426e-12
8.92425e-12
8.92424e-12
8.92422e-12
8.9242e-12
8.92418e-12
8.92415e-12
8.92411e-12
8.92407e-12
8.92402e-12
8.92397e-12
8.92391e-12
8.92385e-12
8.92378e-12
8.92371e-12
8.92365e-12
8.92358e-12
8.92397e-12
8.92397e-12
8.92397e-12
8.92396e-12
8.92396e-12
8.92395e-12
8.92394e-12
8.92393e-12
8.92391e-12
8.92389e-12
8.92387e-12
8.92385e-12
8.92382e-12
8.92379e-12
8.92375e-12
8.92372e-12
8.92368e-12
8.92364e-12
8.9236e-12
8.92356e-12
8.92379e-12
8.92379e-12
8.92379e-12
8.92378e-12
8.92378e-12
8.92378e-12
8.92377e-12
8.92376e-12
8.92375e-12
8.92374e-12
8.92373e-12
8.92372e-12
8.9237e-12
8.92368e-12
8.92367e-12
8.92364e-12
8.92362e-12
8.9236e-12
8.92358e-12
8.92356e-12
8.92368e-12
8.92368e-12
8.92368e-12
8.92368e-12
8.92368e-12
8.92368e-12
8.92367e-12
8.92367e-12
8.92366e-12
8.92366e-12
8.92365e-12
8.92364e-12
8.92363e-12
8.92362e-12
8.92361e-12
8.9236e-12
8.92359e-12
8.92358e-12
8.92356e-12
8.92355e-12
8.92362e-12
8.92362e-12
8.92362e-12
8.92362e-12
8.92362e-12
8.92362e-12
8.92362e-12
8.92362e-12
8.92361e-12
8.92361e-12
8.92361e-12
8.9236e-12
8.9236e-12
8.92359e-12
8.92358e-12
8.92358e-12
8.92357e-12
8.92356e-12
8.92356e-12
8.92355e-12
8.92359e-12
8.92359e-12
8.92359e-12
8.92359e-12
8.92359e-12
8.92359e-12
8.92359e-12
8.92358e-12
8.92358e-12
8.92358e-12
8.92358e-12
8.92358e-12
8.92357e-12
8.92357e-12
8.92357e-12
8.92356e-12
8.92356e-12
8.92356e-12
8.92355e-12
8.92355e-12
8.92357e-12
8.92357e-12
8.92357e-12
8.92357e-12
8.92357e-12
8.92357e-12
8.92357e-12
8.92357e-12
8.92357e-12
8.92357e-12
8.92356e-12
8.92356e-12
8.92356e-12
8.92356e-12
8.92356e-12
8.92356e-12
8.92355e-12
8.92355e-12
8.92355e-12
8.92355e-12
8.92356e-12
8.92356e-12
8.92356e-12
8.92356e-12
8.92356e-12
8.92356e-12
8.92356e-12
8.92356e-12
8.92356e-12
8.92356e-12
8.92356e-12
8.92356e-12
8.92355e-12
8.92355e-12
8.92355e-12
8.92355e-12
8.92355e-12
8.92355e-12
8.92355e-12
8.92355e-12
8.92355e-12
8.92355e-12
8.92355e-12
8.92355e-12
8.92355e-12
8.92355e-12
8.92355e-12
8.92355e-12
8.92355e-12
8.92355e-12
8.92355e-12
8.92355e-12
8.92355e-12
8.92355e-12
8.92355e-12
8.92355e-12
8.92355e-12
8.92355e-12
8.92355e-12
8.92355e-12
8.92355e-12
8.92355e-12
8.92355e-12
8.92355e-12
8.92355e-12
8.92355e-12
8.92355e-12
8.92355e-12
8.92355e-12
8.92355e-12
8.92355e-12
8.92355e-12
8.92355e-12
8.92355e-12
8.92355e-12
8.92355e-12
8.92355e-12
8.92355e-12
8.92355e-12
8.92355e-12
8.92355e-12
8.92355e-12
8.92355e-12
8.92355e-12
8.92355e-12
8.92355e-12
8.92355e-12
8.92355e-12
8.92355e-12
8.92355e-12
8.92355e-12
8.92355e-12
8.92355e-12
8.92355e-12
8.92355e-12
8.92355e-12
8.92355e-12
8.92355e-12
8.92355e-12
8.92355e-12
8.92355e-12
8.92355e-12
8.92355e-12
8.92355e-12
8.92355e-12
8.92355e-12
8.92355e-12
8.92355e-12
8.92355e-12
8.92355e-12
8.92355e-12
8.92355e-12
8.92355e-12
8.92355e-12
8.92355e-12
8.92355e-12
8.92355e-12
8.92355e-12
8.92355e-12
8.92355e-12
8.92355e-12
8.92355e-12
8.92355e-12
8.92355e-12
8.92355e-12
8.92355e-12
8.92355e-12
8.92355e-12
8.92355e-12
8.92355e-12
8.92355e-12
8.92355e-12
8.92355e-12
8.92355e-12
8.92355e-12
8.92355e-12
8.92355e-12
8.92355e-12
8.92355e-12
8.92355e-12
8.92355e-12
8.92355e-12
8.92355e-12
8.92355e-12
8.92355e-12
8.92355e-12
8.92355e-12
8.92355e-12
8.92355e-12
8.92355e-12
8.92355e-12
8.92355e-12
8.92355e-12
8.92355e-12
8.92355e-12
8.92355e-12
8.92355e-12
8.92355e-12
8.92355e-12
8.92355e-12
8.92355e-12
8.92355e-12
8.92355e-12
8.92355e-12
8.92355e-12
8.92355e-12
8.92355e-12
8.92355e-12
8.92355e-12
8.92355e-12
8.92355e-12
8.92355e-12
8.92355e-12
8.92355e-12
8.92355e-12
8.92355e-12
8.92355e-12
8.92355e-12
8.92355e-12
8.92355e-12
)
;

boundaryField
{
    topWall
    {
        type            zeroGradient;
    }
    bottomWall
    {
        type            zeroGradient;
    }
    sideWallL
    {
        type            symmetry;
    }
    sideWallR
    {
        type            zeroGradient;
    }
    frontAndBack
    {
        type            empty;
    }
}


// ************************************************************************* //
