/*--------------------------------*- C++ -*----------------------------------*\
  =========                 |
  \\      /  F ield         | OpenFOAM: The Open Source CFD Toolbox
   \\    /   O peration     | Website:  https://openfoam.org
    \\  /    A nd           | Version:  7
     \\/     M anipulation  |
\*---------------------------------------------------------------------------*/
FoamFile
{
    version     2.0;
    format      ascii;
    class       volScalarField;
    location    "14";
    object      rhot2;
}
// * * * * * * * * * * * * * * * * * * * * * * * * * * * * * * * * * * * * * //

dimensions      [1 -3 0 0 0 0 0];

internalField   nonuniform List<scalar> 
900
(
7.67682e-15
7.67334e-15
7.66589e-15
7.65339e-15
7.63408e-15
7.60519e-15
7.56261e-15
7.50027e-15
7.40924e-15
7.27647e-15
7.08289e-15
6.80077e-15
6.39028e-15
5.79588e-15
4.94584e-15
3.76775e-15
2.2656e-15
7.6347e-16
4.49353e-17
2.7934e-21
3.29906e-17
3.29422e-17
3.28389e-17
3.26663e-17
3.24011e-17
3.20078e-17
3.14352e-17
3.06116e-17
2.94393e-17
2.77914e-17
2.55144e-17
2.24482e-17
1.84835e-17
1.36851e-17
8.49088e-18
3.86867e-18
9.93232e-19
8.11257e-20
5.67359e-22
1.88601e-26
2.06195e-19
2.05674e-19
2.04561e-19
2.02711e-19
1.99889e-19
1.95745e-19
1.898e-19
1.81418e-19
1.69824e-19
1.54166e-19
1.33727e-19
1.0835e-19
7.91398e-20
4.92265e-20
2.37444e-20
7.57928e-21
1.21702e-21
6.11892e-23
4.5251e-25
2.72977e-28
2.02196e-21
2.01485e-21
1.99973e-21
1.97472e-21
1.93684e-21
1.88182e-21
1.80402e-21
1.69653e-21
1.55186e-21
1.36369e-21
1.13035e-21
8.60121e-22
5.76953e-22
3.2089e-22
1.34842e-22
3.71898e-23
5.47126e-24
3.24893e-25
6.02259e-27
4.86317e-29
3.28889e-23
3.27477e-23
3.24482e-23
3.19552e-23
3.12139e-23
3.01478e-23
2.86601e-23
2.66407e-23
2.39851e-23
2.06339e-23
1.6637e-23
1.22308e-23
7.88359e-24
4.21588e-24
1.7325e-24
4.93982e-25
8.6332e-26
8.25956e-27
4.41325e-28
2.10977e-29
9.18008e-25
9.13637e-25
9.04391e-25
8.89241e-25
8.66594e-25
8.34295e-25
7.89705e-25
7.29987e-25
6.52759e-25
5.57255e-25
4.45994e-25
3.26457e-25
2.11405e-25
1.15967e-25
5.10441e-26
1.69523e-26
4.02093e-27
6.74308e-28
8.9884e-29
1.3337e-29
4.45914e-26
4.43748e-26
4.39174e-26
4.31706e-26
4.20596e-26
4.04849e-26
3.83269e-26
3.54618e-26
3.17916e-26
2.72962e-26
2.21017e-26
1.65423e-26
1.11607e-26
6.58699e-27
3.29169e-27
1.3533e-27
4.52941e-28
1.27674e-28
3.38537e-29
1.01561e-29
3.76204e-27
3.74482e-27
3.70853e-27
3.6494e-27
3.56174e-27
3.43797e-27
3.26907e-27
3.04569e-27
2.76033e-27
2.4109e-27
2.00525e-27
1.5653e-27
1.12751e-27
7.3608e-28
4.28624e-28
2.20837e-28
1.01616e-28
4.33804e-29
1.84631e-29
8.56934e-30
5.41928e-28
5.39774e-28
5.3524e-28
5.27865e-28
5.16953e-28
5.01576e-28
4.80622e-28
4.52913e-28
4.17432e-28
3.73699e-28
3.22252e-28
2.6512e-28
2.0599e-28
1.49748e-28
1.01248e-28
6.37358e-29
3.7826e-29
2.17452e-29
1.26003e-29
7.68288e-30
1.28064e-28
1.27657e-28
1.26799e-28
1.25405e-28
1.23346e-28
1.20446e-28
1.16493e-28
1.11255e-28
1.04513e-28
9.61224e-29
8.60845e-29
7.46346e-29
6.22909e-29
4.9829e-29
3.81443e-29
2.80291e-29
1.99571e-29
1.39931e-29
9.86775e-30
7.15225e-30
4.62241e-29
4.6114e-29
4.58824e-29
4.55066e-29
4.49517e-29
4.41706e-29
4.31054e-29
4.16903e-29
3.98594e-29
3.75585e-29
3.47625e-29
3.14959e-29
2.78489e-29
2.39824e-29
2.01111e-29
1.64642e-29
1.3236e-29
1.05451e-29
8.42124e-30
6.82056e-30
2.3185e-29
2.31455e-29
2.30625e-29
2.2928e-29
2.27297e-29
2.24508e-29
2.20703e-29
2.15642e-29
2.09068e-29
2.00747e-29
1.90514e-29
1.78339e-29
1.64388e-29
1.49059e-29
1.32972e-29
1.16896e-29
1.0162e-29
8.78102e-30
7.59037e-30
6.60747e-30
1.47014e-29
1.4684e-29
1.46473e-29
1.45879e-29
1.45005e-29
1.43777e-29
1.42104e-29
1.39878e-29
1.36982e-29
1.33301e-29
1.28741e-29
1.23249e-29
1.16846e-29
1.09638e-29
1.01832e-29
9.3718e-30
8.56356e-30
7.79244e-30
7.0873e-30
6.46824e-30
1.09149e-29
1.09059e-29
1.08871e-29
1.08567e-29
1.08119e-29
1.07493e-29
1.06641e-29
1.0551e-29
1.04038e-29
1.02165e-29
9.98351e-30
9.70109e-30
9.36825e-30
8.98795e-30
8.56773e-30
8.1197e-30
7.65955e-30
7.20472e-30
6.77221e-30
6.37639e-30
8.98483e-30
8.97971e-30
8.969e-30
8.95173e-30
8.92642e-30
8.89108e-30
8.84317e-30
8.77969e-30
8.69728e-30
8.59246e-30
8.46201e-30
8.3034e-30
8.11546e-30
7.89887e-30
7.65665e-30
7.39431e-30
7.11959e-30
6.84176e-30
6.57066e-30
6.3155e-30
7.90876e-30
7.90564e-30
7.89912e-30
7.88864e-30
7.87332e-30
7.85201e-30
7.82322e-30
7.7852e-30
7.736e-30
7.67358e-30
7.59599e-30
7.50164e-30
7.38962e-30
7.26e-30
7.1141e-30
6.95461e-30
6.7856e-30
6.61219e-30
6.44011e-30
6.27508e-30
7.27211e-30
7.27013e-30
7.26598e-30
7.25934e-30
7.24966e-30
7.23624e-30
7.21819e-30
7.19446e-30
7.16387e-30
7.12518e-30
7.07723e-30
7.01902e-30
6.94994e-30
6.86992e-30
6.77958e-30
6.68036e-30
6.5745e-30
6.46492e-30
6.35501e-30
6.2483e-30
6.88068e-30
6.87938e-30
6.87668e-30
6.87235e-30
6.86608e-30
6.85741e-30
6.8458e-30
6.83061e-30
6.81111e-30
6.78655e-30
6.75622e-30
6.71952e-30
6.67604e-30
6.62572e-30
6.56889e-30
6.50636e-30
6.43941e-30
6.36976e-30
6.29943e-30
6.2306e-30
6.6342e-30
6.63334e-30
6.63155e-30
6.62869e-30
6.62457e-30
6.61889e-30
6.61133e-30
6.60147e-30
6.58887e-30
6.57308e-30
6.55365e-30
6.53023e-30
6.50257e-30
6.47063e-30
6.43459e-30
6.39494e-30
6.35243e-30
6.3081e-30
6.26317e-30
6.21897e-30
6.47686e-30
6.47629e-30
6.4751e-30
6.4732e-30
6.47048e-30
6.46674e-30
6.46178e-30
6.45534e-30
6.44716e-30
6.43695e-30
6.42445e-30
6.40943e-30
6.39176e-30
6.37141e-30
6.34851e-30
6.32333e-30
6.29635e-30
6.26819e-30
6.23958e-30
6.21136e-30
6.37578e-30
6.3754e-30
6.37461e-30
6.37335e-30
6.37155e-30
6.36909e-30
6.36583e-30
6.36163e-30
6.35632e-30
6.34972e-30
6.34167e-30
6.33205e-30
6.32077e-30
6.30782e-30
6.29328e-30
6.27733e-30
6.26026e-30
6.24243e-30
6.22432e-30
6.20642e-30
6.31075e-30
6.3105e-30
6.30997e-30
6.30915e-30
6.30796e-30
6.30635e-30
6.30422e-30
6.30149e-30
6.29805e-30
6.2938e-30
6.28864e-30
6.2825e-30
6.27532e-30
6.26711e-30
6.25792e-30
6.24787e-30
6.23711e-30
6.2259e-30
6.21451e-30
6.20324e-30
6.26902e-30
6.26885e-30
6.26851e-30
6.26796e-30
6.26719e-30
6.26614e-30
6.26476e-30
6.263e-30
6.26079e-30
6.25806e-30
6.25477e-30
6.25087e-30
6.24634e-30
6.24116e-30
6.23539e-30
6.22909e-30
6.22236e-30
6.21536e-30
6.20825e-30
6.20121e-30
6.24236e-30
6.24225e-30
6.24203e-30
6.24167e-30
6.24117e-30
6.24049e-30
6.23961e-30
6.23848e-30
6.23707e-30
6.23534e-30
6.23326e-30
6.2308e-30
6.22796e-30
6.22472e-30
6.22112e-30
6.2172e-30
6.21303e-30
6.20868e-30
6.20428e-30
6.19992e-30
6.22545e-30
6.22538e-30
6.22523e-30
6.225e-30
6.22468e-30
6.22425e-30
6.22369e-30
6.22297e-30
6.22208e-30
6.22099e-30
6.21969e-30
6.21815e-30
6.21638e-30
6.21438e-30
6.21215e-30
6.20973e-30
6.20716e-30
6.20449e-30
6.20179e-30
6.19911e-30
6.2148e-30
6.21476e-30
6.21466e-30
6.21452e-30
6.21432e-30
6.21404e-30
6.21369e-30
6.21324e-30
6.21268e-30
6.212e-30
6.21119e-30
6.21024e-30
6.20915e-30
6.20792e-30
6.20655e-30
6.20508e-30
6.20351e-30
6.20188e-30
6.20023e-30
6.1986e-30
6.20816e-30
6.20813e-30
6.20807e-30
6.20798e-30
6.20785e-30
6.20768e-30
6.20746e-30
6.20718e-30
6.20684e-30
6.20642e-30
6.20592e-30
6.20534e-30
6.20467e-30
6.20392e-30
6.20309e-30
6.2022e-30
6.20125e-30
6.20027e-30
6.19927e-30
6.19829e-30
6.20405e-30
6.20404e-30
6.204e-30
6.20394e-30
6.20386e-30
6.20376e-30
6.20362e-30
6.20345e-30
6.20324e-30
6.20299e-30
6.20268e-30
6.20233e-30
6.20193e-30
6.20147e-30
6.20098e-30
6.20044e-30
6.19987e-30
6.19928e-30
6.19869e-30
6.1981e-30
6.20154e-30
6.20153e-30
6.20151e-30
6.20147e-30
6.20142e-30
6.20136e-30
6.20128e-30
6.20117e-30
6.20105e-30
6.20089e-30
6.20071e-30
6.2005e-30
6.20026e-30
6.19999e-30
6.19969e-30
6.19937e-30
6.19903e-30
6.19869e-30
6.19833e-30
6.19799e-30
6.20002e-30
6.20001e-30
6.2e-30
6.19998e-30
6.19995e-30
6.19991e-30
6.19986e-30
6.1998e-30
6.19972e-30
6.19963e-30
6.19952e-30
6.1994e-30
6.19925e-30
6.19909e-30
6.19892e-30
6.19873e-30
6.19853e-30
6.19833e-30
6.19812e-30
6.19792e-30
6.19911e-30
6.1991e-30
6.19909e-30
6.19908e-30
6.19906e-30
6.19904e-30
6.19901e-30
6.19897e-30
6.19893e-30
6.19887e-30
6.19881e-30
6.19874e-30
6.19865e-30
6.19856e-30
6.19846e-30
6.19835e-30
6.19823e-30
6.19811e-30
6.19799e-30
6.19788e-30
6.19856e-30
6.19856e-30
6.19856e-30
6.19855e-30
6.19854e-30
6.19853e-30
6.19851e-30
6.19849e-30
6.19846e-30
6.19843e-30
6.19839e-30
6.19835e-30
6.1983e-30
6.19825e-30
6.19819e-30
6.19812e-30
6.19806e-30
6.19799e-30
6.19792e-30
6.19785e-30
6.19825e-30
6.19824e-30
6.19824e-30
6.19824e-30
6.19823e-30
6.19822e-30
6.19821e-30
6.1982e-30
6.19819e-30
6.19817e-30
6.19815e-30
6.19812e-30
6.19809e-30
6.19806e-30
6.19803e-30
6.19799e-30
6.19795e-30
6.19792e-30
6.19788e-30
6.19784e-30
6.19806e-30
6.19806e-30
6.19806e-30
6.19806e-30
6.19805e-30
6.19805e-30
6.19804e-30
6.19804e-30
6.19803e-30
6.19802e-30
6.198e-30
6.19799e-30
6.19797e-30
6.19796e-30
6.19794e-30
6.19792e-30
6.1979e-30
6.19787e-30
6.19785e-30
6.19783e-30
6.19796e-30
6.19795e-30
6.19795e-30
6.19795e-30
6.19795e-30
6.19795e-30
6.19794e-30
6.19794e-30
6.19794e-30
6.19793e-30
6.19792e-30
6.19791e-30
6.19791e-30
6.1979e-30
6.19789e-30
6.19787e-30
6.19786e-30
6.19785e-30
6.19784e-30
6.19783e-30
6.19789e-30
6.19789e-30
6.19789e-30
6.19789e-30
6.19789e-30
6.19789e-30
6.19789e-30
6.19789e-30
6.19788e-30
6.19788e-30
6.19788e-30
6.19787e-30
6.19787e-30
6.19786e-30
6.19786e-30
6.19785e-30
6.19784e-30
6.19784e-30
6.19783e-30
6.19782e-30
6.19786e-30
6.19786e-30
6.19786e-30
6.19786e-30
6.19786e-30
6.19786e-30
6.19786e-30
6.19786e-30
6.19785e-30
6.19785e-30
6.19785e-30
6.19785e-30
6.19785e-30
6.19784e-30
6.19784e-30
6.19784e-30
6.19783e-30
6.19783e-30
6.19782e-30
6.19782e-30
6.19784e-30
6.19784e-30
6.19784e-30
6.19784e-30
6.19784e-30
6.19784e-30
6.19784e-30
6.19784e-30
6.19784e-30
6.19784e-30
6.19784e-30
6.19784e-30
6.19783e-30
6.19783e-30
6.19783e-30
6.19783e-30
6.19783e-30
6.19782e-30
6.19782e-30
6.19782e-30
6.19783e-30
6.19783e-30
6.19783e-30
6.19783e-30
6.19783e-30
6.19783e-30
6.19783e-30
6.19783e-30
6.19783e-30
6.19783e-30
6.19783e-30
6.19783e-30
6.19783e-30
6.19783e-30
6.19783e-30
6.19782e-30
6.19782e-30
6.19782e-30
6.19782e-30
6.19782e-30
6.19783e-30
6.19783e-30
6.19783e-30
6.19783e-30
6.19783e-30
6.19783e-30
6.19783e-30
6.19783e-30
6.19782e-30
6.19782e-30
6.19782e-30
6.19782e-30
6.19782e-30
6.19782e-30
6.19782e-30
6.19782e-30
6.19782e-30
6.19782e-30
6.19782e-30
6.19782e-30
6.19782e-30
6.19782e-30
6.19782e-30
6.19782e-30
6.19782e-30
6.19782e-30
6.19782e-30
6.19782e-30
6.19782e-30
6.19782e-30
6.19782e-30
6.19782e-30
6.19782e-30
6.19782e-30
6.19782e-30
6.19782e-30
6.19782e-30
6.19782e-30
6.19782e-30
6.19782e-30
6.19782e-30
6.19782e-30
6.19782e-30
6.19782e-30
6.19782e-30
6.19782e-30
6.19782e-30
6.19782e-30
6.19782e-30
6.19782e-30
6.19782e-30
6.19782e-30
6.19782e-30
6.19782e-30
6.19782e-30
6.19782e-30
6.19782e-30
6.19782e-30
6.19782e-30
6.19782e-30
6.19782e-30
6.19782e-30
6.19782e-30
6.19782e-30
6.19782e-30
6.19782e-30
6.19782e-30
6.19782e-30
6.19782e-30
6.19782e-30
6.19782e-30
6.19782e-30
6.19782e-30
6.19782e-30
6.19782e-30
6.19782e-30
6.19782e-30
6.19782e-30
6.19782e-30
6.19782e-30
6.19782e-30
6.19782e-30
6.19782e-30
6.19782e-30
6.19782e-30
6.19782e-30
6.19782e-30
6.19782e-30
6.19782e-30
6.19782e-30
6.19782e-30
6.19782e-30
6.19782e-30
6.19782e-30
6.19782e-30
6.19782e-30
6.19782e-30
6.19782e-30
6.19782e-30
6.19782e-30
6.19782e-30
6.19782e-30
6.19782e-30
6.19782e-30
6.19782e-30
6.19782e-30
6.19782e-30
6.19782e-30
6.19782e-30
6.19782e-30
6.19782e-30
6.19782e-30
6.19782e-30
6.19782e-30
6.19782e-30
6.19782e-30
6.19782e-30
6.19782e-30
6.19782e-30
6.19782e-30
)
;

boundaryField
{
    topWall
    {
        type            zeroGradient;
    }
    bottomWall
    {
        type            zeroGradient;
    }
    sideWallL
    {
        type            symmetry;
    }
    sideWallR
    {
        type            zeroGradient;
    }
    frontAndBack
    {
        type            empty;
    }
}


// ************************************************************************* //
