/*--------------------------------*- C++ -*----------------------------------*\
  =========                 |
  \\      /  F ield         | OpenFOAM: The Open Source CFD Toolbox
   \\    /   O peration     | Website:  https://openfoam.org
    \\  /    A nd           | Version:  7
     \\/     M anipulation  |
\*---------------------------------------------------------------------------*/
FoamFile
{
    version     2.0;
    format      ascii;
    class       volScalarField;
    location    "14";
    object      T;
}
// * * * * * * * * * * * * * * * * * * * * * * * * * * * * * * * * * * * * * //

dimensions      [0 0 0 1 0 0 0];

internalField   nonuniform List<scalar> 
900
(
399.044
399.042
399.037
399.028
399.014
398.994
398.964
398.921
398.858
398.766
398.63
398.427
398.119
397.643
396.877
395.58
393.193
388.206
375.802
338.37
375.532
375.525
375.51
375.484
375.445
375.387
375.303
375.179
375
374.739
374.357
373.791
372.942
371.648
369.626
366.362
360.868
351.168
333.271
300.038
355.835
355.824
355.8
355.76
355.699
355.609
355.478
355.288
355.014
354.618
354.042
353.202
351.965
350.126
347.354
343.114
336.535
326.248
310.341
287.152
339.436
339.421
339.391
339.34
339.262
339.147
338.981
338.743
338.402
337.913
337.213
336.208
334.76
332.668
329.636
325.235
318.871
309.807
297.363
281.567
325.876
325.859
325.823
325.765
325.676
325.545
325.358
325.091
324.712
324.176
323.419
322.354
320.854
318.75
315.811
311.741
306.191
298.829
289.513
278.616
314.746
314.728
314.69
314.627
314.533
314.395
314.199
313.922
313.533
312.99
312.235
311.192
309.758
307.802
305.162
301.65
297.085
291.345
284.479
276.841
305.683
305.665
305.626
305.563
305.468
305.331
305.137
304.866
304.489
303.971
303.261
302.299
301.005
299.284
297.03
294.134
290.511
286.137
281.108
275.69
298.366
298.348
298.311
298.25
298.159
298.029
297.846
297.592
297.244
296.771
296.135
295.286
294.168
292.715
290.861
288.546
285.738
282.452
278.78
274.907
292.51
292.494
292.459
292.403
292.319
292.2
292.034
291.806
291.496
291.081
290.531
289.809
288.875
287.687
286.204
284.397
282.257
279.814
277.14
274.361
287.868
287.853
287.822
287.772
287.697
287.592
287.446
287.247
286.981
286.629
286.167
285.571
284.812
283.865
282.705
281.32
279.712
277.91
275.97
273.974
284.224
284.211
284.183
284.14
284.075
283.984
283.86
283.692
283.47
283.178
282.801
282.321
281.72
280.98
280.09
279.044
277.85
276.531
275.128
273.697
281.39
281.379
281.356
281.319
281.265
281.189
281.086
280.948
280.766
280.531
280.23
279.852
279.385
278.818
278.145
277.366
276.488
275.53
274.52
273.497
279.211
279.202
279.182
279.152
279.107
279.045
278.961
278.85
278.706
278.52
278.285
277.993
277.636
277.209
276.707
276.134
275.495
274.804
274.082
273.353
277.551
277.544
277.528
277.504
277.468
277.418
277.352
277.264
277.151
277.008
276.828
276.606
276.338
276.02
275.652
275.234
274.773
274.279
273.766
273.25
276.301
276.295
276.283
276.263
276.235
276.196
276.145
276.077
275.991
275.881
275.746
275.58
275.382
275.149
274.881
274.581
274.252
273.901
273.539
273.176
275.37
275.365
275.356
275.341
275.319
275.289
275.25
275.198
275.133
275.052
274.951
274.829
274.685
274.516
274.324
274.11
273.877
273.63
273.376
273.123
274.684
274.68
274.673
274.661
274.645
274.622
274.593
274.555
274.506
274.446
274.373
274.285
274.181
274.06
273.924
273.773
273.61
273.437
273.261
273.085
274.183
274.181
274.175
274.167
274.155
274.138
274.116
274.088
274.053
274.009
273.957
273.894
273.82
273.735
273.639
273.534
273.42
273.301
273.179
273.058
273.823
273.821
273.817
273.811
273.802
273.79
273.774
273.754
273.728
273.697
273.66
273.615
273.564
273.504
273.438
273.365
273.287
273.206
273.122
273.04
273.566
273.565
273.562
273.558
273.551
273.542
273.531
273.517
273.499
273.477
273.451
273.42
273.384
273.343
273.297
273.247
273.194
273.139
273.083
273.027
273.386
273.385
273.382
273.379
273.375
273.368
273.361
273.35
273.338
273.323
273.305
273.283
273.259
273.231
273.2
273.166
273.13
273.093
273.055
273.018
273.26
273.259
273.257
273.255
273.252
273.248
273.242
273.235
273.227
273.216
273.204
273.189
273.173
273.154
273.133
273.111
273.087
273.062
273.037
273.012
273.173
273.172
273.171
273.17
273.168
273.165
273.161
273.156
273.15
273.143
273.135
273.125
273.114
273.102
273.088
273.073
273.057
273.041
273.024
273.008
273.114
273.114
273.113
273.112
273.11
273.108
273.106
273.103
273.099
273.094
273.088
273.082
273.075
273.066
273.057
273.048
273.037
273.027
273.016
273.005
273.074
273.074
273.074
273.073
273.072
273.071
273.069
273.067
273.064
273.061
273.057
273.053
273.048
273.043
273.037
273.031
273.024
273.017
273.01
273.003
273.048
273.048
273.047
273.047
273.046
273.045
273.044
273.043
273.041
273.039
273.037
273.034
273.031
273.027
273.024
273.02
273.015
273.011
273.006
273.002
273.031
273.03
273.03
273.03
273.029
273.029
273.028
273.027
273.026
273.025
273.023
273.022
273.02
273.017
273.015
273.012
273.01
273.007
273.004
273.001
273.019
273.019
273.019
273.019
273.019
273.018
273.018
273.017
273.016
273.016
273.015
273.014
273.012
273.011
273.009
273.008
273.006
273.004
273.003
273.001
273.012
273.012
273.012
273.012
273.012
273.011
273.011
273.011
273.01
273.01
273.009
273.008
273.008
273.007
273.006
273.005
273.004
273.003
273.002
273.001
273.007
273.007
273.007
273.007
273.007
273.007
273.007
273.007
273.006
273.006
273.006
273.005
273.005
273.004
273.004
273.003
273.002
273.002
273.001
273
273.005
273.004
273.004
273.004
273.004
273.004
273.004
273.004
273.004
273.004
273.003
273.003
273.003
273.003
273.002
273.002
273.001
273.001
273.001
273
273.003
273.003
273.003
273.003
273.003
273.003
273.002
273.002
273.002
273.002
273.002
273.002
273.002
273.002
273.001
273.001
273.001
273.001
273
273
273.002
273.002
273.002
273.002
273.002
273.002
273.001
273.001
273.001
273.001
273.001
273.001
273.001
273.001
273.001
273.001
273
273
273
273
273.001
273.001
273.001
273.001
273.001
273.001
273.001
273.001
273.001
273.001
273.001
273.001
273.001
273.001
273
273
273
273
273
273
273.001
273.001
273.001
273.001
273.001
273.001
273.001
273
273
273
273
273
273
273
273
273
273
273
273
273
273
273
273
273
273
273
273
273
273
273
273
273
273
273
273
273
273
273
273
273
273
273
273
273
273
273
273
273
273
273
273
273
273
273
273
273
273
273
273
273
273
273
273
273
273
273
273
273
273
273
273
273
273
273
273
273
273
273
273
273
273
273
273
273
273
273
273
273
273
273
273
273
273
273
273
273
273
273
273
273
273
273
273
273
273
273
273
273
273
273
273
273
273
273
273
273
273
273
273
273
273
273
273
273
273
273
273
273
273
273
273
273
273
273
273
273
273
273
273
273
273
273
273
273
273
273
273
273
273
273
273
273
273
273
273
273
273
273
273
273
273
273
273
273
273
273
273
273
273
273
273
273
273
273
273
273
273
273
273
273
273
273
273
273
273
273
273
273
273
273
273
273
273
273
273
273
273
273
273
273
273
273
273
273
273
273
273
273
273
273
273
273
273
273
273
273
273
273
273
273
)
;

boundaryField
{
    topWall
    {
        type            zeroGradient;
    }
    bottomWall
    {
        type            codedFixedValue;
        value           uniform 413;
        name            heating;
        code            #{
            const scalar t = this->db().time().value();
            const scalar Ttemp = 273 + 10*t;
            operator==(Ttemp);
        #};
    }
    sideWallL
    {
        type            symmetry;
    }
    sideWallR
    {
        type            fixedValue;
        value           uniform 273;
    }
    frontAndBack
    {
        type            empty;
    }
}


// ************************************************************************* //
