/*--------------------------------*- C++ -*----------------------------------*\
  =========                 |
  \\      /  F ield         | OpenFOAM: The Open Source CFD Toolbox
   \\    /   O peration     | Website:  https://openfoam.org
    \\  /    A nd           | Version:  7
     \\/     M anipulation  |
\*---------------------------------------------------------------------------*/
FoamFile
{
    version     2.0;
    format      ascii;
    class       volScalarField;
    location    "6";
    object      gradTx;
}
// * * * * * * * * * * * * * * * * * * * * * * * * * * * * * * * * * * * * * //

dimensions      [0 -1 0 1 0 0 0];

internalField   nonuniform List<scalar> 
900
(
-0.107162
-0.367408
-0.783974
-1.52952
-2.90457
-5.44743
-10.1255
-18.6735
-34.2014
-62.3092
-113.205
-205.932
-377.419
-703.746
-1356.26
-2770.75
-6230.94
-16132.1
-49552.6
-178084
-0.304243
-1.04244
-2.22175
-4.32758
-8.20149
-15.3438
-28.4351
-52.2471
-95.2489
-172.485
-310.847
-559.064
-1007.4
-1828.46
-3365.63
-6331.79
-12254
-24364.7
-48531.5
-87707.7
-0.460445
-1.5758
-3.35116
-6.50784
-12.2871
-22.8825
-42.1714
-76.9626
-139.129
-249.268
-443.038
-782.234
-1374.36
-2407.28
-4209.28
-7344.89
-12728.8
-21589.9
-34562.8
-47833.5
-0.560286
-1.91437
-4.05889
-7.84944
-14.7432
-27.2847
-49.9065
-90.2521
-161.344
-285.102
-497.998
-859.972
-1468.09
-2476.11
-4118.39
-6725.39
-10684.9
-16223.6
-22762
-27708.4
-0.599434
-2.04406
-4.31791
-8.30813
-15.5069
-28.4824
-51.6322
-92.3797
-163.04
-283.651
-486.124
-819.993
-1359.61
-2211.26
-3514.85
-5426.73
-8054.69
-11299.1
-14574.2
-16567.8
-0.584144
-1.98745
-4.18083
-7.9985
-14.824
-27.0009
-48.4664
-85.7162
-149.223
-255.43
-429.359
-707.634
-1141.11
-1795.05
-2742.28
-4041.38
-5688.15
-7533.49
-9191.12
-10042.2
-0.528014
-1.79211
-3.75299
-7.13606
-13.1265
-23.698
-42.1016
-73.5742
-126.317
-212.75
-350.928
-565.762
-889.205
-1357.78
-2004.75
-2843.42
-3839.05
-4873.39
-5723.37
-6100.81
-0.447601
-1.51534
-3.15855
-5.96768
-10.8926
-19.4877
-34.2627
-59.165
-100.2
-166.142
-269.186
-425.2
-652.946
-971.283
-1393.06
-1914.66
-2501.79
-3076.42
-3516.84
-3687.92
-0.358494
-1.21054
-2.51127
-4.7143
-8.53805
-15.138
-26.3431
-44.9629
-75.1531
-122.779
-195.641
-303.317
-456.217
-663.344
-928.263
-1243.25
-1582.79
-1899.66
-2129.3
-2207.54
-0.272753
-0.918645
-1.89674
-3.538
-6.35861
-11.1747
-19.2532
-32.4969
-53.6447
-86.4351
-135.634
-206.767
-305.329
-435.251
-596.496
-782.023
-975.053
-1148.42
-1268.39
-1304.13
-0.197956
-0.66504
-1.36675
-2.53354
-4.51944
-7.87505
-13.4392
-22.4449
-36.6213
-58.255
-90.1443
-135.353
-196.653
-275.563
-371.014
-477.863
-585.838
-679.827
-742.375
-758.548
-0.137511
-0.460838
-0.942824
-1.73718
-3.07663
-5.3174
-8.99265
-14.87
-24.0002
-37.731
-57.6488
-85.3942
-122.303
-168.849
-223.929
-284.178
-343.61
-394.02
-426.46
-433.657
-0.0916814
-0.306522
-0.624393
-1.14381
-2.01186
-3.4503
-5.78549
-9.47829
-15.1451
-23.5545
-35.5776
-52.0654
-73.6332
-100.35
-131.379
-164.663
-196.84
-223.548
-240.237
-243.364
-0.0588052
-0.19616
-0.397927
-0.724929
-1.26679
-2.15669
-3.58755
-5.82687
-9.22481
-14.2064
-21.2363
-30.7432
-42.9965
-57.9413
-75.0201
-93.0398
-110.166
-124.123
-132.622
-133.938
-0.036359
-0.121023
-0.244537
-0.443157
-0.769637
-1.30132
-2.14856
-3.46184
-5.43415
-8.29395
-12.2825
-17.6096
-24.3868
-32.5415
-41.7319
-51.2925
-60.2491
-67.4349
-71.7104
-72.2411
-0.0217085
-0.0721096
-0.145159
-0.261759
-0.451964
-0.759279
-1.24492
-1.99104
-3.10105
-4.69448
-6.89342
-9.79799
-13.4508
-17.7944
-22.6311
-27.6019
-32.2016
-35.8424
-37.9642
-38.1661
-0.0125352
-0.0415577
-0.0833618
-0.14962
-0.256932
-0.429038
-0.698913
-1.11016
-1.71669
-2.5795
-3.75887
-5.30134
-7.2215
-9.48114
-11.9711
-14.5035
-16.8221
-18.6359
-19.6732
-19.7437
-0.00700981
-0.023197
-0.0463765
-0.0828719
-0.141582
-0.235091
-0.380668
-0.600835
-0.922995
-1.37749
-1.99342
-2.79188
-3.77689
-4.92548
-6.17964
-7.4436
-8.59024
-9.4781
-9.9773
-9.99837
-0.00380086
-0.0125562
-0.0250241
-0.0445316
-0.0757143
-0.12506
-0.201372
-0.315982
-0.482474
-0.715595
-1.02907
-1.43223
-1.92558
-2.49624
-3.11436
-3.73238
-4.28856
-4.71534
-4.95159
-4.95584
-0.00200047
-0.00659782
-0.0131104
-0.0232399
-0.0393357
-0.0646537
-0.103565
-0.16163
-0.24542
-0.36194
-0.517527
-0.716197
-0.95757
-1.23477
-1.5329
-1.82891
-2.09343
-2.29479
-2.40469
-2.40416
-0.00102302
-0.0033689
-0.0066757
-0.0117903
-0.019872
-0.0325127
-0.0518286
-0.0804821
-0.121578
-0.178371
-0.253721
-0.349318
-0.464716
-0.596397
-0.737136
-0.876016
-0.999351
-1.09257
-1.14279
-1.14147
-0.000508783
-0.00167306
-0.00330661
-0.00581993
-0.00977044
-0.015917
-0.0252592
-0.0390417
-0.0586985
-0.0857074
-0.121335
-0.166272
-0.220203
-0.281393
-0.346428
-0.410254
-0.466623
-0.508956
-0.53149
-0.530447
-0.000246285
-0.000808772
-0.00159451
-0.00279743
-0.00467887
-0.00759181
-0.0119971
-0.0184634
-0.027638
-0.0401781
-0.0566323
-0.0772766
-0.101923
-0.129744
-0.159165
-0.187899
-0.213151
-0.232007
-0.241934
-0.241286
-0.000116126
-0.000380857
-0.000749129
-0.0013103
-0.00218392
-0.00353027
-0.00555695
-0.00851778
-0.0126987
-0.0183858
-0.0258119
-0.0350842
-0.0461018
-0.0584807
-0.0715133
-0.084186
-0.0952741
-0.103511
-0.107803
-0.107447
-5.33724e-05
-0.000174834
-0.000343141
-0.000598471
-0.00099423
-0.0016015
-0.00251169
-0.00383558
-0.00569677
-0.00821721
-0.0114938
-0.015567
-0.0203861
-0.0257779
-0.0314316
-0.0369075
-0.0416798
-0.0452081
-0.0470295
-0.0468479
-2.3928e-05
-7.82896e-05
-0.00015334
-0.000266722
-0.000441736
-0.000709198
-0.00110845
-0.00168681
-0.00249657
-0.00358865
-0.00500259
-0.00675324
-0.00881631
-0.0111158
-0.0135182
-0.0158368
-0.0178501
-0.0193324
-0.0200909
-0.0200033
-1.04692e-05
-3.42195e-05
-6.68917e-05
-0.000116057
-0.000191654
-0.00030674
-0.000477884
-0.000724863
-0.00106934
-0.00153217
-0.00212914
-0.00286555
-0.00373026
-0.00469074
-0.00569082
-0.00665293
-0.00748567
-0.00809634
-0.00840632
-0.00836596
-4.47386e-06
-1.46071e-05
-2.85013e-05
-4.93314e-05
-8.12416e-05
-0.00012965
-0.000201378
-0.00030452
-0.000447874
-0.000639799
-0.00088649
-0.00118977
-0.00154471
-0.00193772
-0.00234568
-0.00273701
-0.00307471
-0.00332147
-0.00344579
-0.00342787
-1.86855e-06
-6.09271e-06
-1.18678e-05
-2.04951e-05
-3.36653e-05
-5.35782e-05
-8.29831e-05
-0.000125125
-0.000183506
-0.000261411
-0.000361225
-0.000483548
-0.000626274
-0.000783846
-0.000946963
-0.00110301
-0.0012373
-0.00133511
-0.00138404
-0.00137635
-7.61991e-07
-2.48282e-06
-4.83029e-06
-8.32667e-06
-1.36442e-05
-2.16588e-05
-3.34546e-05
-5.0309e-05
-7.35846e-05
-0.00010455
-0.000144106
-0.00019244
-0.000248681
-0.000310602
-0.00037454
-0.000435556
-0.000487935
-0.000525967
-0.000544871
-0.000541667
-3.03915e-07
-9.88149e-07
-1.92243e-06
-3.31088e-06
-5.41068e-06
-8.56689e-06
-1.32002e-05
-1.98024e-05
-2.88913e-05
-4.09446e-05
-5.6304e-05
-7.5022e-05
-9.67429e-05
-0.000120601
-0.000145177
-0.000168576
-0.000188616
-0.000203127
-0.000210296
-0.000209
-1.17738e-07
-3.84553e-07
-7.49116e-07
-1.28918e-06
-2.10047e-06
-3.31766e-06
-5.10083e-06
-7.63228e-06
-1.1109e-05
-1.57077e-05
-2.15528e-05
-2.86585e-05
-3.68851e-05
-4.58992e-05
-5.51642e-05
-6.39684e-05
-7.14903e-05
-7.69235e-05
-7.95938e-05
-7.90834e-05
-4.45539e-08
-1.4552e-07
-2.8545e-07
-4.91618e-07
-7.98583e-07
-1.25835e-06
-1.92971e-06
-2.88093e-06
-4.18536e-06
-5.90636e-06
-8.08628e-06
-1.07309e-05
-1.3786e-05
-1.71272e-05
-2.05546e-05
-2.38054e-05
-2.65767e-05
-2.85728e-05
-2.95504e-05
-2.93536e-05
-1.71101e-08
-5.43795e-08
-1.05879e-07
-1.83976e-07
-2.96631e-07
-4.66207e-07
-7.15065e-07
-1.06658e-06
-1.54651e-06
-2.17654e-06
-2.9741e-06
-3.93972e-06
-5.05255e-06
-6.26754e-06
-7.51217e-06
-8.69056e-06
-9.69311e-06
-1.04138e-05
-1.07649e-05
-1.06918e-05
-5.42101e-09
-1.76183e-08
-3.76083e-08
-6.75932e-08
-1.08081e-07
-1.70423e-07
-2.60039e-07
-3.86925e-07
-5.59042e-07
-7.8503e-07
-1.0715e-06
-1.41844e-06
-1.81706e-06
-2.25006e-06
-2.6939e-06
-3.11335e-06
-3.46962e-06
-3.72559e-06
-3.84993e-06
-3.82334e-06
-2.5411e-09
-6.09864e-09
-1.27055e-08
-2.47334e-08
-3.81165e-08
-6.04782e-08
-9.2496e-08
-1.36372e-07
-1.97528e-07
-2.77319e-07
-3.79132e-07
-5.00596e-07
-6.3951e-07
-7.92992e-07
-9.48169e-07
-1.09589e-06
-1.21956e-06
-1.30816e-06
-1.35237e-06
-1.34407e-06
-6.77626e-10
-1.18585e-09
-2.20229e-09
-6.60686e-09
-1.21973e-08
-2.10064e-08
-3.30343e-08
-4.74338e-08
-6.65768e-08
-9.43595e-08
-1.3129e-07
-1.7415e-07
-2.21753e-07
-2.74269e-07
-3.27971e-07
-3.77438e-07
-4.20637e-07
-4.51977e-07
-4.67732e-07
-4.65021e-07
-1.69407e-09
-2.03288e-09
-5.0822e-10
-1.18585e-09
-2.03288e-09
-5.2516e-09
-1.15196e-08
-1.43996e-08
-2.04982e-08
-3.11708e-08
-4.47233e-08
-5.94617e-08
-7.55553e-08
-9.31736e-08
-1.11639e-07
-1.29088e-07
-1.42132e-07
-1.53482e-07
-1.60089e-07
-1.58226e-07
-1.86347e-09
-3.38813e-10
1.18585e-09
-6.77626e-10
-1.69407e-10
0
-2.37169e-09
-5.0822e-09
-7.45389e-09
-9.65618e-09
-1.42302e-08
-1.89735e-08
-2.42251e-08
-3.06626e-08
-3.72694e-08
-4.28599e-08
-4.79421e-08
-5.18384e-08
-5.33631e-08
-5.40407e-08
8.47033e-10
2.20229e-09
1.86347e-09
-6.77626e-10
-3.38813e-10
-5.0822e-10
-2.20229e-09
-2.37169e-09
-1.35525e-09
-2.03288e-09
-2.87991e-09
-4.74338e-09
-7.45389e-09
-9.65618e-09
-1.25361e-08
-1.55854e-08
-1.72795e-08
-1.71101e-08
-1.71101e-08
-1.64324e-08
1.35525e-09
2.5411e-09
1.52466e-09
-6.77626e-10
0
-8.47033e-10
-1.01644e-09
-8.47033e-10
-6.77626e-10
1.69407e-09
6.77626e-10
-1.69407e-09
-1.18585e-09
-1.69407e-09
-5.42101e-09
-7.6233e-09
-6.94567e-09
-4.23516e-09
-3.89635e-09
-4.91279e-09
3.38813e-10
2.5411e-09
1.35525e-09
0
1.69407e-09
-5.0822e-10
-8.47033e-10
0
-6.77626e-10
6.77626e-10
2.20229e-09
-8.47033e-10
-1.69407e-09
3.38813e-10
-1.69407e-09
-8.47033e-10
-2.37169e-09
-2.71051e-09
-3.38813e-10
-8.47033e-10
-5.0822e-10
5.0822e-10
5.0822e-10
6.77626e-10
1.35525e-09
-1.69407e-09
-2.03288e-09
8.47033e-10
6.77626e-10
-3.38813e-10
3.38813e-10
0
8.47033e-10
1.35525e-09
-8.47033e-10
-1.69407e-09
-1.35525e-09
0
1.01644e-09
-5.0822e-10
0
1.69407e-10
8.47033e-10
0
-5.0822e-10
-1.18585e-09
-1.18585e-09
8.47033e-10
2.03288e-09
-5.0822e-10
3.38813e-10
1.69407e-10
-1.69407e-10
-3.38813e-10
-1.18585e-09
-5.0822e-10
-8.47033e-10
-6.77626e-10
1.18585e-09
8.47033e-10
-1.69407e-09
-1.18585e-09
0
-3.38813e-10
3.38813e-10
-3.38813e-10
-1.18585e-09
-1.69407e-10
8.47033e-10
1.69407e-10
6.77626e-10
-8.47033e-10
-1.52466e-09
8.47033e-10
0
-1.01644e-09
0
1.69407e-10
1.52466e-09
0
)
;

boundaryField
{
    topWall
    {
        type            calculated;
        value           nonuniform List<scalar> 
20
(
-1.69407e-09
-1.18585e-09
0
-3.38813e-10
3.38813e-10
-3.38813e-10
-1.18585e-09
-1.69407e-10
8.47033e-10
1.69407e-10
6.77626e-10
-8.47033e-10
-1.52466e-09
8.47033e-10
0
-1.01644e-09
0
1.69407e-10
1.52466e-09
0
)
;
    }
    bottomWall
    {
        type            calculated;
        value           nonuniform List<scalar> 
20
(
-0.107162
-0.367408
-0.783974
-1.52952
-2.90457
-5.44743
-10.1255
-18.6735
-34.2014
-62.3092
-113.205
-205.932
-377.419
-703.746
-1356.26
-2770.75
-6230.94
-16132.1
-49552.6
-178084
)
;
    }
    sideWallL
    {
        type            symmetry;
    }
    sideWallR
    {
        type            calculated;
        value           nonuniform List<scalar> 
45
(
-280612
-110867
-53598.7
-29287.9
-17030.4
-10177.2
-6133.97
-3689.94
-2201.62
-1297.66
-753.517
-430.228
-241.198
-132.639
-71.4941
-37.7512
-19.5204
-9.88158
-4.89641
-2.37469
-1.12721
-0.523716
-0.238184
-0.106049
-0.0462323
-0.0197382
-0.00825421
-0.00338177
-0.00135773
-0.000534303
-0.000206146
-7.80005e-05
-2.89498e-05
-1.05445e-05
-3.77099e-06
-1.32616e-06
-4.5759e-07
-1.55751e-07
-5.45697e-08
-1.59162e-08
-4.54747e-09
-1.13687e-09
-1.13687e-09
1.13687e-09
-2.27374e-09
)
;
    }
    frontAndBack
    {
        type            empty;
    }
}


// ************************************************************************* //
