/*--------------------------------*- C++ -*----------------------------------*\
  =========                 |
  \\      /  F ield         | OpenFOAM: The Open Source CFD Toolbox
   \\    /   O peration     | Website:  https://openfoam.org
    \\  /    A nd           | Version:  7
     \\/     M anipulation  |
\*---------------------------------------------------------------------------*/
FoamFile
{
    version     2.0;
    format      ascii;
    class       volScalarField;
    location    "6";
    object      gradTy;
}
// * * * * * * * * * * * * * * * * * * * * * * * * * * * * * * * * * * * * * //

dimensions      [0 -1 0 1 0 0 0];

internalField   nonuniform List<scalar> 
900
(
-78848
-78848.4
-78849.4
-78851.4
-78855.2
-78862.5
-78876
-78901.1
-78947
-79030.5
-79181.8
-79454.6
-79946.7
-80839.4
-82479
-85561.3
-91581.5
-104046
-132078
-202130
-60916.2
-60916.6
-60917.4
-60919.1
-60922.4
-60928.5
-60939.8
-60960.6
-60998.1
-61065.5
-61185.1
-61395.3
-61761.4
-62392.3
-63464.9
-65245.3
-68039.1
-71743.1
-73496.8
-56753.3
-46236.5
-46236.8
-46237.4
-46238.6
-46240.9
-46245.2
-46252.9
-46266.6
-46290.9
-46332.7
-46403.5
-46519.9
-46704.4
-46980.6
-47352
-47733.3
-47745.6
-46164.2
-39604.5
-20394.8
-34433.2
-34433.3
-34433.7
-34434.3
-34435.5
-34437.5
-34441.1
-34447
-34456.5
-34470.9
-34490.9
-34514
-34528.6
-34499.2
-34332.6
-33804.8
-32414.4
-29130.7
-22123.7
-9142.09
-25130.4
-25130.4
-25130.4
-25130.5
-25130.6
-25130.6
-25130.3
-25129.1
-25125.8
-25117
-25096.1
-25048.4
-24943.7
-24721.4
-24262.7
-23345.3
-21578.7
-18348.5
-12888.5
-4777.68
-17955.5
-17955.4
-17955.3
-17954.9
-17954.1
-17952.5
-17949.3
-17943
-17930.5
-17906.2
-17859.6
-17771
-17605.4
-17300.6
-16751.9
-15790.5
-14168.6
-11574.9
-7742.86
-2724.1
-12548.3
-12548.2
-12547.9
-12547.2
-12545.8
-12543.2
-12538.3
-12529
-12511.8
-12480
-12422.5
-12319.8
-12140
-11831.7
-11316.3
-10482.4
-9189.56
-7296.09
-4732.48
-1621.81
-8571.09
-8570.92
-8570.51
-8569.68
-8568.09
-8565.09
-8559.53
-8549.34
-8530.92
-8498.17
-8440.95
-8342.89
-8178.5
-7909.9
-7484.07
-6833.41
-5883.9
-4577.15
-2910.18
-983.087
-5718.53
-5718.35
-5717.93
-5717.09
-5715.5
-5712.56
-5707.19
-5697.55
-5680.52
-5650.99
-5600.82
-5517.44
-5382.38
-5169.83
-4846.35
-4373.26
-3713.71
-2846.52
-1785.72
-598.07
-3724.97
-3724.81
-3724.42
-3723.66
-3722.24
-3719.65
-3714.98
-3706.74
-3692.46
-3668.21
-3627.94
-3562.71
-3459.98
-3303.15
-3072.19
-2745.9
-2306.8
-1748.95
-1086.97
-362.025
-2368.08
-2367.95
-2367.62
-2366.99
-2365.82
-2363.71
-2359.97
-2353.45
-2342.34
-2323.81
-2293.64
-2245.82
-2172.26
-2062.79
-1905.86
-1690.23
-1408.01
-1058.79
-653.613
-216.859
-1468.92
-1468.82
-1468.56
-1468.07
-1467.17
-1465.57
-1462.75
-1457.91
-1449.78
-1436.44
-1415.08
-1381.87
-1331.8
-1258.85
-1156.58
-1019.22
-843.384
-630.217
-387.104
-128.08
-888.921
-888.843
-888.657
-888.298
-887.644
-886.488
-884.484
-881.083
-875.44
-866.307
-851.916
-829.895
-797.265
-750.588
-686.358
-601.679
-495.219
-368.235
-225.322
-74.3973
-524.758
-524.702
-524.572
-524.322
-523.871
-523.08
-521.722
-519.443
-515.706
-509.732
-500.445
-486.437
-465.99
-437.191
-398.181
-347.544
-284.81
-210.953
-128.697
-42.4259
-302.193
-302.156
-302.069
-301.903
-301.606
-301.089
-300.209
-298.746
-296.373
-292.622
-286.861
-278.279
-265.916
-248.734
-225.769
-196.345
-160.331
-118.38
-72.0499
-23.722
-169.772
-169.748
-169.693
-169.587
-169.399
-169.074
-168.527
-167.625
-166.175
-163.907
-160.461
-155.384
-148.152
-138.218
-125.092
-108.458
-88.303
-65.0306
-39.504
-12.9934
-93.0572
-93.0425
-93.0083
-92.9437
-92.8294
-92.6333
-92.3052
-91.769
-90.915
-89.591
-87.598
-84.691
-80.5919
-75.0171
-67.723
-58.5656
-47.5647
-34.9543
-21.2004
-6.96741
-49.7736
-49.7649
-49.7446
-49.7066
-49.6395
-49.5253
-49.3356
-49.0278
-48.5414
-47.7936
-46.6775
-45.0638
-42.8084
-39.7679
-35.8235
-30.9111
-25.0524
-18.3776
-11.1318
-3.65599
-25.9833
-25.9783
-25.9667
-25.945
-25.9071
-25.8428
-25.7366
-25.5657
-25.2974
-24.8881
-24.2819
-23.4122
-22.2062
-20.5929
-18.5155
-15.9462
-12.9008
-9.44934
-5.71748
-1.87672
-13.2412
-13.2384
-13.232
-13.22
-13.1992
-13.1642
-13.1067
-13.0147
-12.8712
-12.6538
-12.334
-11.8784
-11.2511
-10.4175
-9.35121
-8.04031
-6.49484
-4.75111
-2.87207
-0.942298
-6.58867
-6.58718
-6.58375
-6.57738
-6.56633
-6.54781
-6.51759
-6.4695
-6.395
-6.28278
-6.11877
-5.88659
-5.56884
-5.14922
-4.61547
-3.96275
-3.19681
-2.33594
-1.41097
-0.462742
-3.20199
-3.20121
-3.19943
-3.19613
-3.19043
-3.18094
-3.16551
-3.1411
-3.10349
-3.04716
-2.9653
-2.85007
-2.69326
-2.48728
-2.22661
-1.90931
-1.53849
-1.12311
-0.677927
-0.222258
-1.52023
-1.51984
-1.51894
-1.51728
-1.51443
-1.50969
-1.50204
-1.48999
-1.47152
-1.44399
-1.4042
-1.34847
-1.27301
-1.17437
-1.0501
-0.899453
-0.724028
-0.528104
-0.318583
-0.104417
-0.705328
-0.705135
-0.704694
-0.703884
-0.702495
-0.700199
-0.696505
-0.690714
-0.681877
-0.668772
-0.649916
-0.623634
-0.588206
-0.542097
-0.484241
-0.414364
-0.33325
-0.242892
-0.146451
-0.0479878
-0.319885
-0.319792
-0.319582
-0.319197
-0.318538
-0.317454
-0.315717
-0.313006
-0.308886
-0.302804
-0.294089
-0.281994
-0.265758
-0.244709
-0.218393
-0.186714
-0.150044
-0.10929
-0.0658657
-0.0215777
-0.141856
-0.141813
-0.141715
-0.141537
-0.141233
-0.140734
-0.139938
-0.1387
-0.136827
-0.134073
-0.130142
-0.124708
-0.117441
-0.108053
-0.0963538
-0.0823118
-0.0660992
-0.0481178
-0.0289874
-0.00949452
-0.0615303
-0.0615109
-0.0614667
-0.0613861
-0.0612493
-0.0610256
-0.0606697
-0.0601185
-0.0592874
-0.0580698
-0.0563386
-0.0539537
-0.0507751
-0.0466821
-0.041597
-0.0355096
-0.0284972
-0.0207342
-0.0124864
-0.0040891
-0.0261129
-0.0261043
-0.0260848
-0.0260493
-0.0259892
-0.0258913
-0.025736
-0.0254964
-0.0251363
-0.0246105
-0.0238655
-0.0228426
-0.0214835
-0.0197386
-0.0175766
-0.0149948
-0.0120267
-0.0087464
-0.00526549
-0.00172412
-0.0108463
-0.0108426
-0.0108342
-0.0108189
-0.0107932
-0.0107513
-0.0106852
-0.0105834
-0.010431
-0.0102091
-0.00989574
-0.00946674
-0.00889841
-0.00817071
-0.00727129
-0.00619956
-0.00496984
-0.00361278
-0.00217433
-0.000711868
-0.00441073
-0.00440916
-0.00440562
-0.00439922
-0.00438844
-0.00437096
-0.00434343
-0.00430118
-0.00423811
-0.00414657
-0.00401764
-0.00384165
-0.00360911
-0.00331211
-0.00294587
-0.00251033
-0.00201143
-0.00146164
-0.000879453
-0.000287896
-0.00175662
-0.00175597
-0.00175452
-0.00175189
-0.00174748
-0.00174035
-0.00172914
-0.001712
-0.00168647
-0.00164952
-0.00159762
-0.00152697
-0.00143384
-0.00131517
-0.00116914
-0.000995797
-0.000797551
-0.000579353
-0.000348508
-0.000114076
-0.000685367
-0.000685107
-0.000684524
-0.000683471
-0.000681705
-0.000678858
-0.000674396
-0.000667587
-0.000657475
-0.000642882
-0.000622436
-0.000594664
-0.000558145
-0.000511707
-0.000454671
-0.000387085
-0.000309901
-0.000225046
-0.000135347
-4.42991e-05
-0.000262049
-0.000261949
-0.000261719
-0.000261305
-0.000260614
-0.000259502
-0.000257762
-0.000255116
-0.000251196
-0.000245553
-0.000237665
-0.000226975
-0.000212946
-0.000195142
-0.000173315
-0.00014749
-0.000118037
-8.56926e-05
-5.15274e-05
-1.68637e-05
-9.82201e-05
-9.81808e-05
-9.80918e-05
-9.79333e-05
-9.76676e-05
-9.72423e-05
-9.65801e-05
-9.55729e-05
-9.40857e-05
-9.19464e-05
-8.89644e-05
-8.4932e-05
-7.96523e-05
-7.29626e-05
-6.47748e-05
-5.51017e-05
-4.4083e-05
-3.19951e-05
-1.92359e-05
-6.29481e-06
-3.61e-05
-3.6086e-05
-3.60516e-05
-3.59923e-05
-3.58925e-05
-3.57338e-05
-3.54871e-05
-3.5111e-05
-3.45569e-05
-3.37624e-05
-3.26575e-05
-3.11674e-05
-2.92181e-05
-2.67544e-05
-2.37435e-05
-2.01909e-05
-1.61489e-05
-1.17172e-05
-7.04308e-06
-2.30444e-06
-1.30165e-05
-1.30114e-05
-1.30001e-05
-1.29765e-05
-1.29393e-05
-1.28805e-05
-1.27897e-05
-1.26535e-05
-1.24504e-05
-1.21609e-05
-1.176e-05
-1.12206e-05
-1.05154e-05
-9.62568e-06
-8.53962e-06
-7.25992e-06
-5.80353e-06
-4.2106e-06
-2.53009e-06
-8.28568e-07
-4.60515e-06
-4.60464e-06
-4.60176e-06
-4.59244e-06
-4.57821e-06
-4.55619e-06
-4.52282e-06
-4.47471e-06
-4.40135e-06
-4.29768e-06
-4.1552e-06
-3.96293e-06
-3.71441e-06
-3.39897e-06
-3.01459e-06
-2.56227e-06
-2.04796e-06
-1.48519e-06
-8.93112e-07
-2.92396e-07
-1.59818e-06
-1.59886e-06
-1.59733e-06
-1.5953e-06
-1.59141e-06
-1.58344e-06
-1.57023e-06
-1.55244e-06
-1.52805e-06
-1.49332e-06
-1.44351e-06
-1.37609e-06
-1.28868e-06
-1.17856e-06
-1.04507e-06
-8.87691e-07
-7.10322e-07
-5.14996e-07
-3.10014e-07
-1.00966e-07
-5.45997e-07
-5.43795e-07
-5.41593e-07
-5.41085e-07
-5.41085e-07
-5.39391e-07
-5.37019e-07
-5.30581e-07
-5.24313e-07
-5.11777e-07
-4.94498e-07
-4.70442e-07
-4.39949e-07
-4.02171e-07
-3.56262e-07
-3.02899e-07
-2.42929e-07
-1.78216e-07
-1.06896e-07
-3.48978e-08
-1.84145e-07
-1.81096e-07
-1.81096e-07
-1.81096e-07
-1.81096e-07
-1.80587e-07
-1.81604e-07
-1.79402e-07
-1.77369e-07
-1.72625e-07
-1.65849e-07
-1.57718e-07
-1.484e-07
-1.35017e-07
-1.19262e-07
-1.03507e-07
-8.41951e-08
-6.18334e-08
-3.64224e-08
-1.25361e-08
-6.06476e-08
-6.0817e-08
-6.03087e-08
-6.11558e-08
-5.99699e-08
-5.92923e-08
-5.96311e-08
-5.82759e-08
-5.74288e-08
-5.72594e-08
-5.50571e-08
-5.23466e-08
-5.04832e-08
-4.6248e-08
-4.13352e-08
-3.52366e-08
-2.64274e-08
-2.01594e-08
-1.18585e-08
-3.72694e-09
-1.64324e-08
-1.81265e-08
-1.86347e-08
-1.89735e-08
-1.76183e-08
-1.76183e-08
-1.81265e-08
-1.84653e-08
-1.64324e-08
-1.74489e-08
-1.84653e-08
-1.76183e-08
-1.67713e-08
-1.57548e-08
-1.35525e-08
-1.10114e-08
-7.6233e-09
-5.75982e-09
-3.72694e-09
-8.47033e-10
-1.69407e-09
-2.5411e-09
-3.72694e-09
-3.21873e-09
-3.38813e-09
-5.75982e-09
-4.06576e-09
-5.92923e-09
-3.38813e-09
-3.04932e-09
-4.57398e-09
-5.42101e-09
-3.72694e-09
-3.72694e-09
-4.23516e-09
-3.38813e-09
-3.38813e-09
-2.03288e-09
-1.18585e-09
-5.0822e-10
1.35525e-09
3.38813e-10
-3.38813e-10
-1.69407e-10
-1.18585e-09
-1.35525e-09
0
-3.38813e-10
-1.18585e-09
-3.38813e-10
-3.38813e-10
0
-8.47033e-10
-2.20229e-09
-1.52466e-09
-1.52466e-09
-1.52466e-09
-1.69407e-10
-1.01644e-09
3.38813e-10
1.52466e-09
1.69407e-10
-3.38813e-10
-6.77626e-10
-5.0822e-10
5.0822e-10
3.38813e-10
3.38813e-10
-1.18585e-09
-5.0822e-10
-1.69407e-10
-1.69407e-10
-1.18585e-09
-1.69407e-09
-1.69407e-10
-1.69407e-10
-5.0822e-10
5.0822e-10
0
8.47033e-10
)
;

boundaryField
{
    topWall
    {
        type            calculated;
        value           uniform 0;
    }
    bottomWall
    {
        type            calculated;
        value           nonuniform List<scalar> 
20
(
-88673.8
-88674.3
-88675.3
-88677.4
-88681.4
-88689
-88703.2
-88729.5
-88777.9
-88866.3
-89027.1
-89319.1
-89850.9
-90828.8
-92665.9
-96253.8
-103749
-121178
-168277
-319388
)
;
    }
    sideWallL
    {
        type            symmetry;
    }
    sideWallR
    {
        type            calculated;
        value           nonuniform List<scalar> 
45
(
-202130
-56753.3
-20394.8
-9142.09
-4777.68
-2724.1
-1621.81
-983.087
-598.07
-362.025
-216.859
-128.08
-74.3973
-42.4259
-23.722
-12.9934
-6.96741
-3.65599
-1.87672
-0.942298
-0.462742
-0.222258
-0.104417
-0.0479878
-0.0215777
-0.00949452
-0.0040891
-0.00172412
-0.000711868
-0.000287896
-0.000114076
-4.42991e-05
-1.68637e-05
-6.29481e-06
-2.30444e-06
-8.28568e-07
-2.92396e-07
-1.00966e-07
-3.48978e-08
-1.25361e-08
-3.72694e-09
-8.47033e-10
-5.0822e-10
3.38813e-10
8.47033e-10
)
;
    }
    frontAndBack
    {
        type            empty;
    }
}


// ************************************************************************* //
