/*--------------------------------*- C++ -*----------------------------------*\
  =========                 |
  \\      /  F ield         | OpenFOAM: The Open Source CFD Toolbox
   \\    /   O peration     | Website:  https://openfoam.org
    \\  /    A nd           | Version:  7
     \\/     M anipulation  |
\*---------------------------------------------------------------------------*/
FoamFile
{
    version     2.0;
    format      ascii;
    class       volScalarField;
    location    "6";
    object      rhoc;
}
// * * * * * * * * * * * * * * * * * * * * * * * * * * * * * * * * * * * * * //

dimensions      [1 -3 0 0 0 0 0];

internalField   nonuniform List<scalar> 
900
(
5.85452e-25
5.85448e-25
5.85438e-25
5.85417e-25
5.85376e-25
5.85296e-25
5.85142e-25
5.84845e-25
5.8428e-25
5.83214e-25
5.81212e-25
5.77475e-25
5.70517e-25
5.57555e-25
5.33322e-25
4.87811e-25
4.02916e-25
2.55437e-25
7.2111e-26
1.07866e-27
1.03049e-26
1.03047e-26
1.03042e-26
1.03032e-26
1.03011e-26
1.0297e-26
1.02892e-26
1.02741e-26
1.02456e-26
1.01919e-26
1.00921e-26
9.90884e-27
9.57686e-27
8.98791e-27
7.9789e-27
6.36086e-27
4.09286e-27
1.69585e-27
2.83018e-28
9.29795e-30
4.21923e-28
4.2191e-28
4.2188e-28
4.21818e-28
4.21695e-28
4.21454e-28
4.2099e-28
4.20105e-28
4.18433e-28
4.15317e-28
4.09592e-28
3.99264e-28
3.81077e-28
3.50189e-28
3.00692e-28
2.28835e-28
1.40925e-28
6.0737e-29
1.53285e-29
2.26859e-30
3.98485e-29
3.98472e-29
3.98442e-29
3.98378e-29
3.98253e-29
3.98009e-29
3.9754e-29
3.9665e-29
3.9498e-29
3.91894e-29
3.86295e-29
3.76359e-29
3.59251e-29
3.31039e-29
2.87447e-29
2.26532e-29
1.53634e-29
8.43675e-30
3.64053e-30
1.34736e-30
8.10241e-30
8.10219e-30
8.10164e-30
8.10052e-30
8.0983e-30
8.09399e-30
8.08575e-30
8.07019e-30
8.04122e-30
7.98819e-30
7.89308e-30
7.72664e-30
7.44468e-30
6.98755e-30
6.2908e-30
5.31817e-30
4.11798e-30
2.8633e-30
1.79544e-30
1.06932e-30
3.0391e-30
3.03903e-30
3.03888e-30
3.03856e-30
3.03793e-30
3.03671e-30
3.0344e-30
3.03006e-30
3.02206e-30
3.00755e-30
2.98183e-30
2.9374e-30
2.86313e-30
2.74407e-30
2.56353e-30
2.30922e-30
1.984e-30
1.61583e-30
1.25519e-30
9.53735e-31
1.72374e-30
1.72371e-30
1.72365e-30
1.72352e-30
1.72327e-30
1.72279e-30
1.72188e-30
1.72018e-30
1.71709e-30
1.71154e-30
1.70183e-30
1.68527e-30
1.65796e-30
1.61467e-30
1.54942e-30
1.45711e-30
1.33643e-30
1.19307e-30
1.04085e-30
8.98147e-31
1.25216e-30
1.25215e-30
1.25212e-30
1.25205e-30
1.25193e-30
1.25169e-30
1.25124e-30
1.25042e-30
1.24894e-30
1.24632e-30
1.24179e-30
1.23418e-30
1.2218e-30
1.20244e-30
1.17354e-30
1.13278e-30
1.07907e-30
1.0138e-30
9.41531e-31
8.69464e-31
1.04669e-30
1.04669e-30
1.04667e-30
1.04663e-30
1.04656e-30
1.04643e-30
1.04618e-30
1.04573e-30
1.04493e-30
1.04353e-30
1.04115e-30
1.03721e-30
1.03089e-30
1.02116e-30
1.00681e-30
9.86751e-31
9.60377e-31
9.28091e-31
8.91668e-31
8.54164e-31
9.4663e-31
9.46625e-31
9.46614e-31
9.46592e-31
9.4655e-31
9.46471e-31
9.46327e-31
9.46066e-31
9.45605e-31
9.44811e-31
9.43479e-31
9.41307e-31
9.37883e-31
9.32689e-31
9.25143e-31
9.14716e-31
9.01113e-31
8.84489e-31
8.65621e-31
8.45895e-31
8.9491e-31
8.94907e-31
8.949e-31
8.94886e-31
8.94861e-31
8.94813e-31
8.94725e-31
8.9457e-31
8.94299e-31
8.93838e-31
8.93074e-31
8.91849e-31
8.89947e-31
8.87106e-31
8.8304e-31
8.77496e-31
8.70338e-31
8.61645e-31
8.51788e-31
8.41419e-31
8.67424e-31
8.67422e-31
8.67418e-31
8.67409e-31
8.67393e-31
8.67364e-31
8.67311e-31
8.67219e-31
8.67059e-31
8.66791e-31
8.66353e-31
8.65659e-31
8.646e-31
8.6304e-31
8.60841e-31
8.57882e-31
8.54105e-31
8.49556e-31
8.4442e-31
8.39012e-31
8.52695e-31
8.52694e-31
8.52691e-31
8.52686e-31
8.52676e-31
8.52659e-31
8.52627e-31
8.52573e-31
8.5248e-31
8.52326e-31
8.52077e-31
8.51689e-31
8.51104e-31
8.50256e-31
8.49076e-31
8.47508e-31
8.4553e-31
8.43169e-31
8.40518e-31
8.3773e-31
8.44832e-31
8.44831e-31
8.44829e-31
8.44826e-31
8.44821e-31
8.4481e-31
8.44792e-31
8.44761e-31
8.44708e-31
8.44621e-31
8.44482e-31
8.44269e-31
8.43952e-31
8.43498e-31
8.42874e-31
8.42055e-31
8.41033e-31
8.39823e-31
8.38473e-31
8.37057e-31
8.40681e-31
8.4068e-31
8.40679e-31
8.40677e-31
8.40674e-31
8.40668e-31
8.40658e-31
8.4064e-31
8.40611e-31
8.40563e-31
8.40488e-31
8.40373e-31
8.40205e-31
8.39966e-31
8.39642e-31
8.39222e-31
8.38703e-31
8.38093e-31
8.37416e-31
8.36709e-31
8.38523e-31
8.38523e-31
8.38522e-31
8.38521e-31
8.3852e-31
8.38516e-31
8.38511e-31
8.38501e-31
8.38485e-31
8.38459e-31
8.38419e-31
8.38359e-31
8.38272e-31
8.38149e-31
8.37985e-31
8.37774e-31
8.37514e-31
8.37213e-31
8.36879e-31
8.36532e-31
8.37422e-31
8.37422e-31
8.37422e-31
8.37422e-31
8.37421e-31
8.37419e-31
8.37416e-31
8.37411e-31
8.37402e-31
8.37389e-31
8.37368e-31
8.37337e-31
8.37293e-31
8.37232e-31
8.3715e-31
8.37046e-31
8.36919e-31
8.36772e-31
8.36611e-31
8.36444e-31
8.36872e-31
8.36872e-31
8.36872e-31
8.36871e-31
8.36871e-31
8.3687e-31
8.36868e-31
8.36866e-31
8.36861e-31
8.36855e-31
8.36844e-31
8.36829e-31
8.36807e-31
8.36777e-31
8.36737e-31
8.36687e-31
8.36626e-31
8.36556e-31
8.3648e-31
8.36401e-31
8.36602e-31
8.36602e-31
8.36602e-31
8.36602e-31
8.36602e-31
8.36601e-31
8.366e-31
8.36599e-31
8.36597e-31
8.36594e-31
8.36588e-31
8.36581e-31
8.3657e-31
8.36556e-31
8.36537e-31
8.36513e-31
8.36485e-31
8.36452e-31
8.36417e-31
8.3638e-31
8.36473e-31
8.36473e-31
8.36473e-31
8.36473e-31
8.36473e-31
8.36472e-31
8.36472e-31
8.36471e-31
8.3647e-31
8.36469e-31
8.36466e-31
8.36463e-31
8.36458e-31
8.36451e-31
8.36442e-31
8.36431e-31
8.36418e-31
8.36403e-31
8.36387e-31
8.3637e-31
8.36412e-31
8.36412e-31
8.36412e-31
8.36412e-31
8.36412e-31
8.36412e-31
8.36412e-31
8.36411e-31
8.36411e-31
8.3641e-31
8.36409e-31
8.36407e-31
8.36405e-31
8.36402e-31
8.36398e-31
8.36393e-31
8.36387e-31
8.3638e-31
8.36373e-31
8.36366e-31
8.36384e-31
8.36384e-31
8.36384e-31
8.36384e-31
8.36384e-31
8.36384e-31
8.36384e-31
8.36384e-31
8.36384e-31
8.36383e-31
8.36383e-31
8.36382e-31
8.36381e-31
8.3638e-31
8.36378e-31
8.36376e-31
8.36373e-31
8.3637e-31
8.36367e-31
8.36364e-31
8.36372e-31
8.36372e-31
8.36372e-31
8.36372e-31
8.36372e-31
8.36372e-31
8.36372e-31
8.36372e-31
8.36371e-31
8.36371e-31
8.36371e-31
8.36371e-31
8.3637e-31
8.3637e-31
8.36369e-31
8.36368e-31
8.36367e-31
8.36365e-31
8.36364e-31
8.36363e-31
8.36366e-31
8.36366e-31
8.36366e-31
8.36366e-31
8.36366e-31
8.36366e-31
8.36366e-31
8.36366e-31
8.36366e-31
8.36366e-31
8.36366e-31
8.36366e-31
8.36366e-31
8.36365e-31
8.36365e-31
8.36365e-31
8.36364e-31
8.36363e-31
8.36363e-31
8.36362e-31
8.36364e-31
8.36364e-31
8.36364e-31
8.36364e-31
8.36364e-31
8.36364e-31
8.36364e-31
8.36364e-31
8.36364e-31
8.36364e-31
8.36364e-31
8.36364e-31
8.36363e-31
8.36363e-31
8.36363e-31
8.36363e-31
8.36363e-31
8.36363e-31
8.36362e-31
8.36362e-31
8.36363e-31
8.36363e-31
8.36363e-31
8.36363e-31
8.36363e-31
8.36363e-31
8.36363e-31
8.36363e-31
8.36363e-31
8.36363e-31
8.36363e-31
8.36363e-31
8.36363e-31
8.36363e-31
8.36363e-31
8.36362e-31
8.36362e-31
8.36362e-31
8.36362e-31
8.36362e-31
8.36362e-31
8.36362e-31
8.36362e-31
8.36362e-31
8.36362e-31
8.36362e-31
8.36362e-31
8.36362e-31
8.36362e-31
8.36362e-31
8.36362e-31
8.36362e-31
8.36362e-31
8.36362e-31
8.36362e-31
8.36362e-31
8.36362e-31
8.36362e-31
8.36362e-31
8.36362e-31
8.36362e-31
8.36362e-31
8.36362e-31
8.36362e-31
8.36362e-31
8.36362e-31
8.36362e-31
8.36362e-31
8.36362e-31
8.36362e-31
8.36362e-31
8.36362e-31
8.36362e-31
8.36362e-31
8.36362e-31
8.36362e-31
8.36362e-31
8.36362e-31
8.36362e-31
8.36362e-31
8.36362e-31
8.36362e-31
8.36362e-31
8.36362e-31
8.36362e-31
8.36362e-31
8.36362e-31
8.36362e-31
8.36362e-31
8.36362e-31
8.36362e-31
8.36362e-31
8.36362e-31
8.36362e-31
8.36362e-31
8.36362e-31
8.36362e-31
8.36362e-31
8.36362e-31
8.36362e-31
8.36362e-31
8.36362e-31
8.36362e-31
8.36362e-31
8.36362e-31
8.36362e-31
8.36362e-31
8.36362e-31
8.36362e-31
8.36362e-31
8.36362e-31
8.36362e-31
8.36362e-31
8.36362e-31
8.36362e-31
8.36362e-31
8.36362e-31
8.36362e-31
8.36362e-31
8.36362e-31
8.36362e-31
8.36362e-31
8.36362e-31
8.36362e-31
8.36362e-31
8.36362e-31
8.36362e-31
8.36362e-31
8.36362e-31
8.36362e-31
8.36362e-31
8.36362e-31
8.36362e-31
8.36362e-31
8.36362e-31
8.36362e-31
8.36362e-31
8.36362e-31
8.36362e-31
8.36362e-31
8.36362e-31
8.36362e-31
8.36362e-31
8.36362e-31
8.36362e-31
8.36362e-31
8.36362e-31
8.36362e-31
8.36362e-31
8.36362e-31
8.36362e-31
8.36362e-31
8.36362e-31
8.36362e-31
8.36362e-31
8.36362e-31
8.36362e-31
8.36362e-31
8.36362e-31
8.36362e-31
8.36362e-31
8.36362e-31
8.36362e-31
8.36362e-31
8.36362e-31
8.36362e-31
8.36362e-31
8.36362e-31
8.36362e-31
8.36362e-31
8.36362e-31
8.36362e-31
8.36362e-31
8.36362e-31
8.36362e-31
8.36362e-31
8.36362e-31
8.36362e-31
8.36362e-31
8.36362e-31
8.36362e-31
8.36362e-31
8.36362e-31
8.36362e-31
8.36362e-31
8.36362e-31
8.36362e-31
8.36362e-31
8.36362e-31
8.36362e-31
8.36362e-31
8.36362e-31
8.36362e-31
8.36362e-31
8.36362e-31
8.36362e-31
8.36362e-31
8.36362e-31
8.36362e-31
8.36362e-31
8.36362e-31
8.36362e-31
8.36362e-31
8.36362e-31
8.36362e-31
8.36362e-31
8.36362e-31
8.36362e-31
8.36362e-31
8.36362e-31
8.36362e-31
8.36362e-31
8.36362e-31
8.36362e-31
8.36362e-31
8.36362e-31
8.36362e-31
8.36362e-31
8.36362e-31
8.36362e-31
8.36362e-31
8.36362e-31
8.36362e-31
8.36362e-31
8.36362e-31
8.36362e-31
8.36362e-31
8.36362e-31
8.36362e-31
8.36362e-31
8.36362e-31
8.36362e-31
8.36362e-31
8.36362e-31
8.36362e-31
8.36362e-31
8.36362e-31
8.36362e-31
8.36362e-31
8.36362e-31
8.36362e-31
8.36362e-31
8.36362e-31
8.36362e-31
8.36362e-31
8.36362e-31
8.36362e-31
8.36362e-31
8.36362e-31
8.36362e-31
8.36362e-31
8.36362e-31
8.36362e-31
8.36362e-31
8.36362e-31
8.36362e-31
8.36362e-31
8.36362e-31
8.36362e-31
8.36362e-31
8.36362e-31
8.36362e-31
8.36362e-31
8.36362e-31
8.36362e-31
8.36362e-31
8.36362e-31
8.36362e-31
8.36362e-31
8.36362e-31
8.36362e-31
8.36362e-31
8.36362e-31
8.36362e-31
8.36362e-31
8.36362e-31
8.36362e-31
8.36362e-31
8.36362e-31
8.36362e-31
8.36362e-31
8.36362e-31
8.36362e-31
8.36362e-31
8.36362e-31
8.36362e-31
8.36362e-31
8.36362e-31
8.36362e-31
8.36362e-31
8.36362e-31
8.36362e-31
8.36362e-31
8.36362e-31
8.36362e-31
8.36362e-31
8.36362e-31
8.36362e-31
8.36362e-31
8.36362e-31
8.36362e-31
8.36362e-31
8.36362e-31
8.36362e-31
8.36362e-31
8.36362e-31
8.36362e-31
8.36362e-31
8.36362e-31
8.36362e-31
8.36362e-31
8.36362e-31
8.36362e-31
8.36362e-31
8.36362e-31
8.36362e-31
8.36362e-31
8.36362e-31
8.36362e-31
8.36362e-31
8.36362e-31
8.36362e-31
8.36362e-31
8.36362e-31
8.36362e-31
8.36362e-31
8.36362e-31
8.36362e-31
8.36362e-31
8.36362e-31
8.36362e-31
8.36362e-31
8.36362e-31
8.36362e-31
8.36362e-31
8.36362e-31
8.36362e-31
8.36362e-31
8.36362e-31
8.36362e-31
8.36362e-31
8.36362e-31
8.36362e-31
8.36362e-31
8.36362e-31
8.36362e-31
8.36362e-31
8.36362e-31
8.36362e-31
8.36362e-31
8.36362e-31
8.36362e-31
8.36362e-31
8.36362e-31
8.36362e-31
8.36362e-31
8.36362e-31
8.36362e-31
8.36362e-31
8.36362e-31
8.36362e-31
8.36362e-31
8.36362e-31
8.36362e-31
8.36362e-31
8.36362e-31
8.36362e-31
8.36362e-31
8.36362e-31
8.36362e-31
8.36362e-31
8.36362e-31
8.36362e-31
8.36362e-31
8.36362e-31
8.36362e-31
8.36362e-31
8.36362e-31
8.36362e-31
8.36362e-31
8.36362e-31
8.36362e-31
8.36362e-31
8.36362e-31
8.36362e-31
8.36362e-31
8.36362e-31
8.36362e-31
8.36362e-31
8.36362e-31
8.36362e-31
8.36362e-31
8.36362e-31
8.36362e-31
8.36362e-31
8.36362e-31
8.36362e-31
8.36362e-31
8.36362e-31
8.36362e-31
8.36362e-31
8.36362e-31
8.36362e-31
8.36362e-31
8.36362e-31
8.36362e-31
8.36362e-31
8.36362e-31
8.36362e-31
8.36362e-31
8.36362e-31
8.36362e-31
8.36362e-31
8.36362e-31
8.36362e-31
8.36362e-31
8.36362e-31
8.36362e-31
8.36362e-31
8.36362e-31
)
;

boundaryField
{
    topWall
    {
        type            zeroGradient;
    }
    bottomWall
    {
        type            zeroGradient;
    }
    sideWallL
    {
        type            symmetry;
    }
    sideWallR
    {
        type            zeroGradient;
    }
    frontAndBack
    {
        type            empty;
    }
}


// ************************************************************************* //
