/*--------------------------------*- C++ -*----------------------------------*\
  =========                 |
  \\      /  F ield         | OpenFOAM: The Open Source CFD Toolbox
   \\    /   O peration     | Website:  https://openfoam.org
    \\  /    A nd           | Version:  7
     \\/     M anipulation  |
\*---------------------------------------------------------------------------*/
FoamFile
{
    version     2.0;
    format      ascii;
    class       volScalarField;
    location    "6";
    object      rhog;
}
// * * * * * * * * * * * * * * * * * * * * * * * * * * * * * * * * * * * * * //

dimensions      [1 -3 0 0 0 0 0];

internalField   nonuniform List<scalar> 
900
(
6.45796e-13
6.45793e-13
6.45786e-13
6.45772e-13
6.45743e-13
6.45686e-13
6.45578e-13
6.45371e-13
6.44979e-13
6.44241e-13
6.42863e-13
6.40296e-13
6.35523e-13
6.2661e-13
6.09801e-13
5.77535e-13
5.14213e-13
3.9015e-13
1.81414e-13
1.40329e-14
5.76114e-14
5.76106e-14
5.76088e-14
5.76049e-14
5.75974e-14
5.75827e-14
5.75544e-14
5.75005e-14
5.73986e-14
5.7208e-14
5.68544e-14
5.62047e-14
5.50223e-14
5.28956e-14
4.91403e-14
4.27353e-14
3.25901e-14
1.89682e-14
6.28857e-15
7.39753e-16
8.35604e-15
8.35588e-15
8.35548e-15
8.35466e-15
8.35304e-15
8.3499e-15
8.34386e-15
8.3324e-15
8.31087e-15
8.27087e-15
8.19753e-15
8.065e-15
7.82977e-15
7.42252e-15
6.74377e-15
5.6818e-15
4.19305e-15
2.47129e-15
1.03332e-15
3.02771e-16
1.95969e-15
1.95964e-15
1.95954e-15
1.95933e-15
1.9589e-15
1.95809e-15
1.95653e-15
1.95358e-15
1.94809e-15
1.93797e-15
1.91965e-15
1.8871e-15
1.83065e-15
1.73594e-15
1.58438e-15
1.35864e-15
1.05748e-15
7.17433e-16
4.15082e-16
2.17089e-16
7.16823e-16
7.16809e-16
7.16775e-16
7.16704e-16
7.16565e-16
7.16297e-16
7.15786e-16
7.14827e-16
7.13052e-16
7.09816e-16
7.0403e-16
6.93914e-16
6.76713e-16
6.48515e-16
6.04532e-16
5.40524e-16
4.55995e-16
3.58231e-16
2.62982e-16
1.87196e-16
3.78517e-16
3.78511e-16
3.78497e-16
3.78468e-16
3.78411e-16
3.78302e-16
3.78095e-16
3.77709e-16
3.77001e-16
3.75724e-16
3.73469e-16
3.69584e-16
3.63088e-16
3.52628e-16
3.36586e-16
3.13495e-16
2.82907e-16
2.46461e-16
2.08312e-16
1.73916e-16
2.59465e-16
2.59462e-16
2.59455e-16
2.59441e-16
2.59413e-16
2.59361e-16
2.59262e-16
2.59079e-16
2.58746e-16
2.58152e-16
2.57117e-16
2.5536e-16
2.52466e-16
2.47878e-16
2.40938e-16
2.31029e-16
2.17868e-16
2.01863e-16
1.84334e-16
1.67304e-16
2.09314e-16
2.09313e-16
2.09309e-16
2.09301e-16
2.09286e-16
2.09258e-16
2.09204e-16
2.09107e-16
2.08932e-16
2.08622e-16
2.0809e-16
2.072e-16
2.05756e-16
2.03501e-16
2.00136e-16
1.95377e-16
1.89068e-16
1.81325e-16
1.72634e-16
1.63824e-16
1.85562e-16
1.85561e-16
1.85558e-16
1.85554e-16
1.85545e-16
1.85528e-16
1.85498e-16
1.85442e-16
1.85343e-16
1.8517e-16
1.84877e-16
1.84393e-16
1.83621e-16
1.82433e-16
1.80686e-16
1.78243e-16
1.75027e-16
1.71075e-16
1.66592e-16
1.61943e-16
1.73482e-16
1.73482e-16
1.7348e-16
1.73477e-16
1.73472e-16
1.73462e-16
1.73444e-16
1.7341e-16
1.73352e-16
1.73252e-16
1.73084e-16
1.72812e-16
1.72384e-16
1.71735e-16
1.70795e-16
1.69498e-16
1.67806e-16
1.65737e-16
1.63385e-16
1.60918e-16
1.67094e-16
1.67093e-16
1.67093e-16
1.67091e-16
1.67087e-16
1.67081e-16
1.6707e-16
1.6705e-16
1.67016e-16
1.66957e-16
1.6686e-16
1.66704e-16
1.66464e-16
1.66105e-16
1.65592e-16
1.64895e-16
1.63995e-16
1.62903e-16
1.61664e-16
1.6036e-16
1.63655e-16
1.63655e-16
1.63655e-16
1.63654e-16
1.63651e-16
1.63648e-16
1.63641e-16
1.63629e-16
1.63608e-16
1.63574e-16
1.63518e-16
1.6343e-16
1.63295e-16
1.63097e-16
1.62818e-16
1.62443e-16
1.61965e-16
1.6139e-16
1.60742e-16
1.60058e-16
1.61799e-16
1.61799e-16
1.61799e-16
1.61798e-16
1.61797e-16
1.61794e-16
1.6179e-16
1.61783e-16
1.61771e-16
1.61752e-16
1.6172e-16
1.6167e-16
1.61595e-16
1.61487e-16
1.61337e-16
1.61137e-16
1.60886e-16
1.60587e-16
1.6025e-16
1.59897e-16
1.60803e-16
1.60803e-16
1.60803e-16
1.60802e-16
1.60802e-16
1.608e-16
1.60798e-16
1.60794e-16
1.60787e-16
1.60776e-16
1.60758e-16
1.60731e-16
1.6069e-16
1.60632e-16
1.60552e-16
1.60448e-16
1.60318e-16
1.60164e-16
1.59992e-16
1.59812e-16
1.60275e-16
1.60275e-16
1.60275e-16
1.60275e-16
1.60275e-16
1.60274e-16
1.60272e-16
1.6027e-16
1.60266e-16
1.6026e-16
1.60251e-16
1.60236e-16
1.60214e-16
1.60184e-16
1.60142e-16
1.60089e-16
1.60022e-16
1.59944e-16
1.59858e-16
1.59768e-16
1.6e-16
1.6e-16
1.6e-16
1.6e-16
1.6e-16
1.6e-16
1.59999e-16
1.59998e-16
1.59995e-16
1.59992e-16
1.59987e-16
1.59979e-16
1.59968e-16
1.59952e-16
1.59931e-16
1.59904e-16
1.59871e-16
1.59832e-16
1.5979e-16
1.59745e-16
1.5986e-16
1.5986e-16
1.5986e-16
1.5986e-16
1.59859e-16
1.59859e-16
1.59859e-16
1.59858e-16
1.59857e-16
1.59855e-16
1.59853e-16
1.59849e-16
1.59843e-16
1.59835e-16
1.59825e-16
1.59811e-16
1.59795e-16
1.59776e-16
1.59756e-16
1.59734e-16
1.59789e-16
1.59789e-16
1.59789e-16
1.59789e-16
1.59789e-16
1.59789e-16
1.59789e-16
1.59788e-16
1.59788e-16
1.59787e-16
1.59786e-16
1.59784e-16
1.59781e-16
1.59777e-16
1.59772e-16
1.59765e-16
1.59758e-16
1.59749e-16
1.59739e-16
1.59729e-16
1.59755e-16
1.59755e-16
1.59755e-16
1.59755e-16
1.59755e-16
1.59754e-16
1.59754e-16
1.59754e-16
1.59754e-16
1.59753e-16
1.59753e-16
1.59752e-16
1.5975e-16
1.59749e-16
1.59746e-16
1.59743e-16
1.59739e-16
1.59735e-16
1.59731e-16
1.59726e-16
1.59738e-16
1.59738e-16
1.59738e-16
1.59738e-16
1.59738e-16
1.59738e-16
1.59738e-16
1.59738e-16
1.59738e-16
1.59737e-16
1.59737e-16
1.59737e-16
1.59736e-16
1.59735e-16
1.59734e-16
1.59733e-16
1.59731e-16
1.59729e-16
1.59727e-16
1.59725e-16
1.5973e-16
1.5973e-16
1.5973e-16
1.5973e-16
1.5973e-16
1.5973e-16
1.5973e-16
1.5973e-16
1.5973e-16
1.5973e-16
1.5973e-16
1.59729e-16
1.59729e-16
1.59729e-16
1.59728e-16
1.59728e-16
1.59727e-16
1.59726e-16
1.59725e-16
1.59724e-16
1.59727e-16
1.59727e-16
1.59727e-16
1.59727e-16
1.59727e-16
1.59726e-16
1.59726e-16
1.59726e-16
1.59726e-16
1.59726e-16
1.59726e-16
1.59726e-16
1.59726e-16
1.59726e-16
1.59726e-16
1.59725e-16
1.59725e-16
1.59725e-16
1.59724e-16
1.59724e-16
1.59725e-16
1.59725e-16
1.59725e-16
1.59725e-16
1.59725e-16
1.59725e-16
1.59725e-16
1.59725e-16
1.59725e-16
1.59725e-16
1.59725e-16
1.59725e-16
1.59725e-16
1.59725e-16
1.59725e-16
1.59724e-16
1.59724e-16
1.59724e-16
1.59724e-16
1.59724e-16
1.59724e-16
1.59724e-16
1.59724e-16
1.59724e-16
1.59724e-16
1.59724e-16
1.59724e-16
1.59724e-16
1.59724e-16
1.59724e-16
1.59724e-16
1.59724e-16
1.59724e-16
1.59724e-16
1.59724e-16
1.59724e-16
1.59724e-16
1.59724e-16
1.59724e-16
1.59724e-16
1.59724e-16
1.59724e-16
1.59724e-16
1.59724e-16
1.59724e-16
1.59724e-16
1.59724e-16
1.59724e-16
1.59724e-16
1.59724e-16
1.59724e-16
1.59724e-16
1.59724e-16
1.59724e-16
1.59724e-16
1.59724e-16
1.59724e-16
1.59724e-16
1.59724e-16
1.59724e-16
1.59724e-16
1.59724e-16
1.59724e-16
1.59724e-16
1.59724e-16
1.59724e-16
1.59724e-16
1.59724e-16
1.59724e-16
1.59724e-16
1.59724e-16
1.59724e-16
1.59724e-16
1.59724e-16
1.59724e-16
1.59724e-16
1.59724e-16
1.59724e-16
1.59724e-16
1.59724e-16
1.59724e-16
1.59724e-16
1.59724e-16
1.59724e-16
1.59724e-16
1.59724e-16
1.59724e-16
1.59724e-16
1.59724e-16
1.59724e-16
1.59724e-16
1.59724e-16
1.59724e-16
1.59724e-16
1.59724e-16
1.59724e-16
1.59724e-16
1.59724e-16
1.59724e-16
1.59724e-16
1.59724e-16
1.59724e-16
1.59724e-16
1.59724e-16
1.59724e-16
1.59724e-16
1.59724e-16
1.59724e-16
1.59724e-16
1.59724e-16
1.59724e-16
1.59724e-16
1.59724e-16
1.59724e-16
1.59724e-16
1.59724e-16
1.59724e-16
1.59724e-16
1.59724e-16
1.59724e-16
1.59724e-16
1.59724e-16
1.59724e-16
1.59724e-16
1.59724e-16
1.59724e-16
1.59724e-16
1.59724e-16
1.59724e-16
1.59724e-16
1.59724e-16
1.59724e-16
1.59724e-16
1.59724e-16
1.59724e-16
1.59724e-16
1.59724e-16
1.59724e-16
1.59724e-16
1.59724e-16
1.59724e-16
1.59724e-16
1.59724e-16
1.59724e-16
1.59724e-16
1.59724e-16
1.59724e-16
1.59724e-16
1.59724e-16
1.59724e-16
1.59724e-16
1.59724e-16
1.59724e-16
1.59724e-16
1.59724e-16
1.59724e-16
1.59724e-16
1.59724e-16
1.59724e-16
1.59724e-16
1.59724e-16
1.59724e-16
1.59724e-16
1.59724e-16
1.59724e-16
1.59724e-16
1.59724e-16
1.59724e-16
1.59724e-16
1.59724e-16
1.59724e-16
1.59724e-16
1.59724e-16
1.59724e-16
1.59724e-16
1.59724e-16
1.59724e-16
1.59724e-16
1.59724e-16
1.59724e-16
1.59724e-16
1.59724e-16
1.59724e-16
1.59724e-16
1.59724e-16
1.59724e-16
1.59724e-16
1.59724e-16
1.59724e-16
1.59724e-16
1.59724e-16
1.59724e-16
1.59724e-16
1.59724e-16
1.59724e-16
1.59724e-16
1.59724e-16
1.59724e-16
1.59724e-16
1.59724e-16
1.59724e-16
1.59724e-16
1.59724e-16
1.59724e-16
1.59724e-16
1.59724e-16
1.59724e-16
1.59724e-16
1.59724e-16
1.59724e-16
1.59724e-16
1.59724e-16
1.59724e-16
1.59724e-16
1.59724e-16
1.59724e-16
1.59724e-16
1.59724e-16
1.59724e-16
1.59724e-16
1.59724e-16
1.59724e-16
1.59724e-16
1.59724e-16
1.59724e-16
1.59724e-16
1.59724e-16
1.59724e-16
1.59724e-16
1.59724e-16
1.59724e-16
1.59724e-16
1.59724e-16
1.59724e-16
1.59724e-16
1.59724e-16
1.59724e-16
1.59724e-16
1.59724e-16
1.59724e-16
1.59724e-16
1.59724e-16
1.59724e-16
1.59724e-16
1.59724e-16
1.59724e-16
1.59724e-16
1.59724e-16
1.59724e-16
1.59724e-16
1.59724e-16
1.59724e-16
1.59724e-16
1.59724e-16
1.59724e-16
1.59724e-16
1.59724e-16
1.59724e-16
1.59724e-16
1.59724e-16
1.59724e-16
1.59724e-16
1.59724e-16
1.59724e-16
1.59724e-16
1.59724e-16
1.59724e-16
1.59724e-16
1.59724e-16
1.59724e-16
1.59724e-16
1.59724e-16
1.59724e-16
1.59724e-16
1.59724e-16
1.59724e-16
1.59724e-16
1.59724e-16
1.59724e-16
1.59724e-16
1.59724e-16
1.59724e-16
1.59724e-16
1.59724e-16
1.59724e-16
1.59724e-16
1.59724e-16
1.59724e-16
1.59724e-16
1.59724e-16
1.59724e-16
1.59724e-16
1.59724e-16
1.59724e-16
1.59724e-16
1.59724e-16
1.59724e-16
1.59724e-16
1.59724e-16
1.59724e-16
1.59724e-16
1.59724e-16
1.59724e-16
1.59724e-16
1.59724e-16
1.59724e-16
1.59724e-16
1.59724e-16
1.59724e-16
1.59724e-16
1.59724e-16
1.59724e-16
1.59724e-16
1.59724e-16
1.59724e-16
1.59724e-16
1.59724e-16
1.59724e-16
1.59724e-16
1.59724e-16
1.59724e-16
1.59724e-16
1.59724e-16
1.59724e-16
1.59724e-16
1.59724e-16
1.59724e-16
1.59724e-16
1.59724e-16
1.59724e-16
1.59724e-16
1.59724e-16
1.59724e-16
1.59724e-16
1.59724e-16
1.59724e-16
1.59724e-16
1.59724e-16
1.59724e-16
1.59724e-16
1.59724e-16
1.59724e-16
1.59724e-16
1.59724e-16
1.59724e-16
1.59724e-16
1.59724e-16
1.59724e-16
1.59724e-16
1.59724e-16
1.59724e-16
1.59724e-16
1.59724e-16
1.59724e-16
1.59724e-16
1.59724e-16
1.59724e-16
1.59724e-16
1.59724e-16
1.59724e-16
1.59724e-16
1.59724e-16
1.59724e-16
1.59724e-16
1.59724e-16
1.59724e-16
1.59724e-16
1.59724e-16
1.59724e-16
1.59724e-16
1.59724e-16
1.59724e-16
1.59724e-16
1.59724e-16
1.59724e-16
1.59724e-16
1.59724e-16
1.59724e-16
1.59724e-16
1.59724e-16
1.59724e-16
1.59724e-16
1.59724e-16
1.59724e-16
1.59724e-16
1.59724e-16
1.59724e-16
1.59724e-16
1.59724e-16
1.59724e-16
1.59724e-16
1.59724e-16
1.59724e-16
1.59724e-16
1.59724e-16
1.59724e-16
1.59724e-16
1.59724e-16
1.59724e-16
1.59724e-16
1.59724e-16
1.59724e-16
1.59724e-16
1.59724e-16
1.59724e-16
1.59724e-16
1.59724e-16
1.59724e-16
1.59724e-16
1.59724e-16
1.59724e-16
1.59724e-16
1.59724e-16
1.59724e-16
1.59724e-16
1.59724e-16
1.59724e-16
1.59724e-16
1.59724e-16
1.59724e-16
1.59724e-16
1.59724e-16
1.59724e-16
1.59724e-16
1.59724e-16
1.59724e-16
1.59724e-16
1.59724e-16
1.59724e-16
1.59724e-16
1.59724e-16
1.59724e-16
1.59724e-16
1.59724e-16
1.59724e-16
1.59724e-16
1.59724e-16
1.59724e-16
1.59724e-16
1.59724e-16
1.59724e-16
1.59724e-16
1.59724e-16
1.59724e-16
1.59724e-16
1.59724e-16
1.59724e-16
1.59724e-16
1.59724e-16
1.59724e-16
1.59724e-16
1.59724e-16
1.59724e-16
1.59724e-16
1.59724e-16
1.59724e-16
1.59724e-16
1.59724e-16
1.59724e-16
1.59724e-16
)
;

boundaryField
{
    topWall
    {
        type            calculated;
        value           uniform 0;
    }
    bottomWall
    {
        type            zeroGradient;
    }
    sideWallL
    {
        type            symmetry;
    }
    sideWallR
    {
        type            calculated;
        value           uniform 0;
    }
    frontAndBack
    {
        type            empty;
    }
}


// ************************************************************************* //
