/*--------------------------------*- C++ -*----------------------------------*\
  =========                 |
  \\      /  F ield         | OpenFOAM: The Open Source CFD Toolbox
   \\    /   O peration     | Website:  https://openfoam.org
    \\  /    A nd           | Version:  7
     \\/     M anipulation  |
\*---------------------------------------------------------------------------*/
FoamFile
{
    version     2.0;
    format      ascii;
    class       volScalarField;
    location    "6";
    object      rhois;
}
// * * * * * * * * * * * * * * * * * * * * * * * * * * * * * * * * * * * * * //

dimensions      [1 -3 0 0 0 0 0];

internalField   nonuniform List<scalar> 
900
(
1.21376e-09
1.21375e-09
1.21374e-09
1.21373e-09
1.21369e-09
1.21362e-09
1.21349e-09
1.21323e-09
1.21275e-09
1.21183e-09
1.21009e-09
1.20683e-09
1.20072e-09
1.18918e-09
1.16713e-09
1.12398e-09
1.03655e-09
8.54216e-10
4.9901e-10
8.38863e-11
2.14482e-10
2.1448e-10
2.14476e-10
2.14467e-10
2.14449e-10
2.14414e-10
2.14347e-10
2.14217e-10
2.1397e-10
2.13505e-10
2.12635e-10
2.11019e-10
2.08041e-10
2.02594e-10
1.92732e-10
1.75231e-10
1.45554e-10
1.00416e-10
4.72221e-11
1.11031e-11
5.50472e-11
5.50466e-11
5.5045e-11
5.50416e-11
5.5035e-11
5.50221e-11
5.49973e-11
5.49497e-11
5.48596e-11
5.46909e-11
5.43786e-11
5.38077e-11
5.2779e-11
5.09602e-11
4.78318e-11
4.26878e-11
3.48662e-11
2.45128e-11
1.37229e-11
6.00954e-12
2.03736e-11
2.03733e-11
2.03727e-11
2.03713e-11
2.03687e-11
2.03636e-11
2.03537e-11
2.03349e-11
2.02996e-11
2.0234e-11
2.01143e-11
1.98989e-11
1.95196e-11
1.8869e-11
1.77938e-11
1.6112e-11
1.36929e-11
1.06289e-11
7.40609e-12
4.76271e-12
1.04281e-11
1.0428e-11
1.04277e-11
1.04271e-11
1.04259e-11
1.04235e-11
1.04191e-11
1.04106e-11
1.03949e-11
1.0366e-11
1.03138e-11
1.02217e-11
1.00627e-11
9.79687e-12
9.37031e-12
8.72342e-12
7.81636e-12
6.67438e-12
5.42766e-12
4.28777e-12
6.8574e-12
6.85734e-12
6.85719e-12
6.85687e-12
6.85624e-12
6.85504e-12
6.85275e-12
6.84846e-12
6.84054e-12
6.82617e-12
6.80061e-12
6.75617e-12
6.68097e-12
6.55793e-12
6.36496e-12
6.07844e-12
5.6822e-12
5.18214e-12
4.61937e-12
4.06763e-12
5.34306e-12
5.34302e-12
5.34293e-12
5.34275e-12
5.3424e-12
5.34171e-12
5.34043e-12
5.33803e-12
5.33366e-12
5.32583e-12
5.3121e-12
5.28861e-12
5.24959e-12
5.18699e-12
5.09075e-12
4.95034e-12
4.75839e-12
4.51618e-12
4.23878e-12
3.95548e-12
4.62302e-12
4.623e-12
4.62295e-12
4.62283e-12
4.62262e-12
4.6222e-12
4.62143e-12
4.62001e-12
4.61745e-12
4.61291e-12
4.60508e-12
4.59189e-12
4.57038e-12
4.53651e-12
4.4854e-12
4.41208e-12
4.31308e-12
4.18874e-12
4.04536e-12
3.89565e-12
4.25477e-12
4.25476e-12
4.25472e-12
4.25465e-12
4.25451e-12
4.25426e-12
4.25378e-12
4.25291e-12
4.25135e-12
4.24864e-12
4.24402e-12
4.23637e-12
4.22411e-12
4.20515e-12
4.17706e-12
4.13743e-12
4.08464e-12
4.01888e-12
3.94308e-12
3.86309e-12
4.05828e-12
4.05827e-12
4.05825e-12
4.0582e-12
4.05811e-12
4.05795e-12
4.05765e-12
4.05711e-12
4.05615e-12
4.05451e-12
4.05175e-12
4.04727e-12
4.04019e-12
4.02944e-12
4.01379e-12
3.99207e-12
3.96355e-12
3.92838e-12
3.88801e-12
3.84525e-12
3.95122e-12
3.95122e-12
3.9512e-12
3.95117e-12
3.95112e-12
3.95101e-12
3.95083e-12
3.95049e-12
3.94991e-12
3.94892e-12
3.94728e-12
3.94465e-12
3.94058e-12
3.9345e-12
3.92578e-12
3.91388e-12
3.89846e-12
3.87966e-12
3.85822e-12
3.83551e-12
3.89255e-12
3.89254e-12
3.89253e-12
3.89252e-12
3.89248e-12
3.89242e-12
3.8923e-12
3.8921e-12
3.89175e-12
3.89116e-12
3.8902e-12
3.88868e-12
3.88636e-12
3.88296e-12
3.87815e-12
3.87168e-12
3.86342e-12
3.85345e-12
3.84216e-12
3.83024e-12
3.86052e-12
3.86052e-12
3.86051e-12
3.8605e-12
3.86048e-12
3.86044e-12
3.86037e-12
3.86025e-12
3.86004e-12
3.8597e-12
3.85915e-12
3.85829e-12
3.85699e-12
3.85512e-12
3.85251e-12
3.84905e-12
3.84468e-12
3.83946e-12
3.83359e-12
3.82741e-12
3.84322e-12
3.84322e-12
3.84322e-12
3.84321e-12
3.8432e-12
3.84317e-12
3.84313e-12
3.84306e-12
3.84294e-12
3.84275e-12
3.84244e-12
3.84197e-12
3.84126e-12
3.84025e-12
3.83886e-12
3.83704e-12
3.83476e-12
3.83208e-12
3.82907e-12
3.82592e-12
3.83402e-12
3.83402e-12
3.83402e-12
3.83402e-12
3.83401e-12
3.834e-12
3.83397e-12
3.83393e-12
3.83387e-12
3.83376e-12
3.83359e-12
3.83333e-12
3.83296e-12
3.83242e-12
3.8317e-12
3.83076e-12
3.8296e-12
3.82824e-12
3.82673e-12
3.82515e-12
3.82922e-12
3.82922e-12
3.82922e-12
3.82922e-12
3.82921e-12
3.8292e-12
3.82919e-12
3.82917e-12
3.82913e-12
3.82908e-12
3.82899e-12
3.82885e-12
3.82865e-12
3.82838e-12
3.82801e-12
3.82754e-12
3.82696e-12
3.82628e-12
3.82553e-12
3.82476e-12
3.82676e-12
3.82676e-12
3.82676e-12
3.82676e-12
3.82675e-12
3.82675e-12
3.82674e-12
3.82673e-12
3.82671e-12
3.82668e-12
3.82664e-12
3.82657e-12
3.82647e-12
3.82633e-12
3.82615e-12
3.82591e-12
3.82563e-12
3.8253e-12
3.82494e-12
3.82456e-12
3.82552e-12
3.82552e-12
3.82552e-12
3.82552e-12
3.82552e-12
3.82552e-12
3.82552e-12
3.82551e-12
3.8255e-12
3.82549e-12
3.82546e-12
3.82543e-12
3.82538e-12
3.82531e-12
3.82522e-12
3.82511e-12
3.82497e-12
3.82481e-12
3.82464e-12
3.82446e-12
3.82492e-12
3.82492e-12
3.82492e-12
3.82492e-12
3.82492e-12
3.82492e-12
3.82491e-12
3.82491e-12
3.82491e-12
3.8249e-12
3.82489e-12
3.82487e-12
3.82485e-12
3.82481e-12
3.82477e-12
3.82472e-12
3.82465e-12
3.82458e-12
3.8245e-12
3.82442e-12
3.82463e-12
3.82463e-12
3.82463e-12
3.82463e-12
3.82463e-12
3.82463e-12
3.82463e-12
3.82462e-12
3.82462e-12
3.82462e-12
3.82461e-12
3.8246e-12
3.82459e-12
3.82458e-12
3.82456e-12
3.82453e-12
3.8245e-12
3.82447e-12
3.82443e-12
3.8244e-12
3.82449e-12
3.82449e-12
3.82449e-12
3.82449e-12
3.82449e-12
3.82449e-12
3.82449e-12
3.82449e-12
3.82449e-12
3.82449e-12
3.82448e-12
3.82448e-12
3.82447e-12
3.82447e-12
3.82446e-12
3.82445e-12
3.82443e-12
3.82442e-12
3.8244e-12
3.82439e-12
3.82443e-12
3.82443e-12
3.82443e-12
3.82443e-12
3.82443e-12
3.82443e-12
3.82443e-12
3.82443e-12
3.82443e-12
3.82443e-12
3.82442e-12
3.82442e-12
3.82442e-12
3.82442e-12
3.82441e-12
3.82441e-12
3.8244e-12
3.8244e-12
3.82439e-12
3.82438e-12
3.8244e-12
3.8244e-12
3.8244e-12
3.8244e-12
3.8244e-12
3.8244e-12
3.8244e-12
3.8244e-12
3.8244e-12
3.8244e-12
3.8244e-12
3.8244e-12
3.8244e-12
3.82439e-12
3.82439e-12
3.82439e-12
3.82439e-12
3.82438e-12
3.82438e-12
3.82438e-12
3.82439e-12
3.82439e-12
3.82439e-12
3.82439e-12
3.82439e-12
3.82439e-12
3.82439e-12
3.82439e-12
3.82439e-12
3.82439e-12
3.82439e-12
3.82439e-12
3.82438e-12
3.82438e-12
3.82438e-12
3.82438e-12
3.82438e-12
3.82438e-12
3.82438e-12
3.82438e-12
3.82438e-12
3.82438e-12
3.82438e-12
3.82438e-12
3.82438e-12
3.82438e-12
3.82438e-12
3.82438e-12
3.82438e-12
3.82438e-12
3.82438e-12
3.82438e-12
3.82438e-12
3.82438e-12
3.82438e-12
3.82438e-12
3.82438e-12
3.82438e-12
3.82438e-12
3.82438e-12
3.82438e-12
3.82438e-12
3.82438e-12
3.82438e-12
3.82438e-12
3.82438e-12
3.82438e-12
3.82438e-12
3.82438e-12
3.82438e-12
3.82438e-12
3.82438e-12
3.82438e-12
3.82438e-12
3.82438e-12
3.82438e-12
3.82438e-12
3.82438e-12
3.82438e-12
3.82438e-12
3.82438e-12
3.82438e-12
3.82438e-12
3.82438e-12
3.82438e-12
3.82438e-12
3.82438e-12
3.82438e-12
3.82438e-12
3.82438e-12
3.82438e-12
3.82438e-12
3.82438e-12
3.82438e-12
3.82438e-12
3.82438e-12
3.82438e-12
3.82438e-12
3.82438e-12
3.82438e-12
3.82438e-12
3.82438e-12
3.82438e-12
3.82438e-12
3.82438e-12
3.82438e-12
3.82438e-12
3.82438e-12
3.82438e-12
3.82438e-12
3.82438e-12
3.82438e-12
3.82438e-12
3.82438e-12
3.82438e-12
3.82438e-12
3.82438e-12
3.82438e-12
3.82438e-12
3.82438e-12
3.82438e-12
3.82438e-12
3.82438e-12
3.82438e-12
3.82438e-12
3.82438e-12
3.82438e-12
3.82438e-12
3.82438e-12
3.82438e-12
3.82438e-12
3.82438e-12
3.82438e-12
3.82438e-12
3.82438e-12
3.82438e-12
3.82438e-12
3.82438e-12
3.82438e-12
3.82438e-12
3.82438e-12
3.82438e-12
3.82438e-12
3.82438e-12
3.82438e-12
3.82438e-12
3.82438e-12
3.82438e-12
3.82438e-12
3.82438e-12
3.82438e-12
3.82438e-12
3.82438e-12
3.82438e-12
3.82438e-12
3.82438e-12
3.82438e-12
3.82438e-12
3.82438e-12
3.82438e-12
3.82438e-12
3.82438e-12
3.82438e-12
3.82438e-12
3.82438e-12
3.82438e-12
3.82438e-12
3.82438e-12
3.82438e-12
3.82438e-12
3.82438e-12
3.82438e-12
3.82438e-12
3.82438e-12
3.82438e-12
3.82438e-12
3.82438e-12
3.82438e-12
3.82438e-12
3.82438e-12
3.82438e-12
3.82438e-12
3.82438e-12
3.82438e-12
3.82438e-12
3.82438e-12
3.82438e-12
3.82438e-12
3.82438e-12
3.82438e-12
3.82438e-12
3.82438e-12
3.82438e-12
3.82438e-12
3.82438e-12
3.82438e-12
3.82438e-12
3.82438e-12
3.82438e-12
3.82438e-12
3.82438e-12
3.82438e-12
3.82438e-12
3.82438e-12
3.82438e-12
3.82438e-12
3.82438e-12
3.82438e-12
3.82438e-12
3.82438e-12
3.82438e-12
3.82438e-12
3.82438e-12
3.82438e-12
3.82438e-12
3.82438e-12
3.82438e-12
3.82438e-12
3.82438e-12
3.82438e-12
3.82438e-12
3.82438e-12
3.82438e-12
3.82438e-12
3.82438e-12
3.82438e-12
3.82438e-12
3.82438e-12
3.82438e-12
3.82438e-12
3.82438e-12
3.82438e-12
3.82438e-12
3.82438e-12
3.82438e-12
3.82438e-12
3.82438e-12
3.82438e-12
3.82438e-12
3.82438e-12
3.82438e-12
3.82438e-12
3.82438e-12
3.82438e-12
3.82438e-12
3.82438e-12
3.82438e-12
3.82438e-12
3.82438e-12
3.82438e-12
3.82438e-12
3.82438e-12
3.82438e-12
3.82438e-12
3.82438e-12
3.82438e-12
3.82438e-12
3.82438e-12
3.82438e-12
3.82438e-12
3.82438e-12
3.82438e-12
3.82438e-12
3.82438e-12
3.82438e-12
3.82438e-12
3.82438e-12
3.82438e-12
3.82438e-12
3.82438e-12
3.82438e-12
3.82438e-12
3.82438e-12
3.82438e-12
3.82438e-12
3.82438e-12
3.82438e-12
3.82438e-12
3.82438e-12
3.82438e-12
3.82438e-12
3.82438e-12
3.82438e-12
3.82438e-12
3.82438e-12
3.82438e-12
3.82438e-12
3.82438e-12
3.82438e-12
3.82438e-12
3.82438e-12
3.82438e-12
3.82438e-12
3.82438e-12
3.82438e-12
3.82438e-12
3.82438e-12
3.82438e-12
3.82438e-12
3.82438e-12
3.82438e-12
3.82438e-12
3.82438e-12
3.82438e-12
3.82438e-12
3.82438e-12
3.82438e-12
3.82438e-12
3.82438e-12
3.82438e-12
3.82438e-12
3.82438e-12
3.82438e-12
3.82438e-12
3.82438e-12
3.82438e-12
3.82438e-12
3.82438e-12
3.82438e-12
3.82438e-12
3.82438e-12
3.82438e-12
3.82438e-12
3.82438e-12
3.82438e-12
3.82438e-12
3.82438e-12
3.82438e-12
3.82438e-12
3.82438e-12
3.82438e-12
3.82438e-12
3.82438e-12
3.82438e-12
3.82438e-12
3.82438e-12
3.82438e-12
3.82438e-12
3.82438e-12
3.82438e-12
3.82438e-12
3.82438e-12
3.82438e-12
3.82438e-12
3.82438e-12
3.82438e-12
3.82438e-12
3.82438e-12
3.82438e-12
3.82438e-12
3.82438e-12
3.82438e-12
3.82438e-12
3.82438e-12
3.82438e-12
3.82438e-12
3.82438e-12
3.82438e-12
3.82438e-12
3.82438e-12
3.82438e-12
3.82438e-12
3.82438e-12
3.82438e-12
3.82438e-12
3.82438e-12
3.82438e-12
3.82438e-12
3.82438e-12
3.82438e-12
3.82438e-12
3.82438e-12
3.82438e-12
3.82438e-12
3.82438e-12
3.82438e-12
3.82438e-12
3.82438e-12
3.82438e-12
3.82438e-12
3.82438e-12
3.82438e-12
3.82438e-12
3.82438e-12
3.82438e-12
3.82438e-12
3.82438e-12
3.82438e-12
3.82438e-12
3.82438e-12
3.82438e-12
3.82438e-12
3.82438e-12
3.82438e-12
3.82438e-12
3.82438e-12
3.82438e-12
3.82438e-12
3.82438e-12
3.82438e-12
3.82438e-12
3.82438e-12
3.82438e-12
3.82438e-12
3.82438e-12
3.82438e-12
3.82438e-12
3.82438e-12
3.82438e-12
3.82438e-12
3.82438e-12
3.82438e-12
3.82438e-12
3.82438e-12
3.82438e-12
3.82438e-12
3.82438e-12
3.82438e-12
3.82438e-12
3.82438e-12
3.82438e-12
3.82438e-12
3.82438e-12
3.82438e-12
3.82438e-12
3.82438e-12
3.82438e-12
3.82438e-12
3.82438e-12
3.82438e-12
3.82438e-12
3.82438e-12
3.82438e-12
3.82438e-12
3.82438e-12
3.82438e-12
3.82438e-12
3.82438e-12
3.82438e-12
3.82438e-12
3.82438e-12
3.82438e-12
3.82438e-12
3.82438e-12
3.82438e-12
3.82438e-12
3.82438e-12
3.82438e-12
3.82438e-12
3.82438e-12
3.82438e-12
3.82438e-12
3.82438e-12
3.82438e-12
3.82438e-12
3.82438e-12
3.82438e-12
3.82438e-12
3.82438e-12
3.82438e-12
)
;

boundaryField
{
    topWall
    {
        type            zeroGradient;
    }
    bottomWall
    {
        type            zeroGradient;
    }
    sideWallL
    {
        type            symmetry;
    }
    sideWallR
    {
        type            zeroGradient;
    }
    frontAndBack
    {
        type            empty;
    }
}


// ************************************************************************* //
