/*--------------------------------*- C++ -*----------------------------------*\
  =========                 |
  \\      /  F ield         | OpenFOAM: The Open Source CFD Toolbox
   \\    /   O peration     | Website:  https://openfoam.org
    \\  /    A nd           | Version:  7
     \\/     M anipulation  |
\*---------------------------------------------------------------------------*/
FoamFile
{
    version     2.0;
    format      ascii;
    class       volScalarField;
    location    "6";
    object      rhot1;
}
// * * * * * * * * * * * * * * * * * * * * * * * * * * * * * * * * * * * * * //

dimensions      [1 -3 0 0 0 0 0];

internalField   nonuniform List<scalar> 
900
(
9.39168e-12
9.39164e-12
9.39154e-12
9.39133e-12
9.39093e-12
9.39015e-12
9.38864e-12
9.38575e-12
9.38027e-12
9.36996e-12
9.35068e-12
9.31476e-12
9.24789e-12
9.1229e-12
8.88685e-12
8.4328e-12
7.5386e-12
5.7743e-12
2.75622e-12
2.33128e-13
9.05938e-13
9.05927e-13
9.05899e-13
9.05841e-13
9.05728e-13
9.05507e-13
9.05081e-13
9.04268e-13
9.02732e-13
8.99855e-13
8.94514e-13
8.8469e-13
8.66786e-13
8.34527e-13
7.77409e-13
6.79555e-13
5.2336e-13
3.10635e-13
1.07237e-13
1.36856e-14
1.40259e-13
1.40257e-13
1.4025e-13
1.40237e-13
1.40211e-13
1.40161e-13
1.40064e-13
1.3988e-13
1.39534e-13
1.38891e-13
1.37711e-13
1.35576e-13
1.31781e-13
1.25194e-13
1.14179e-13
9.68457e-14
7.23206e-14
4.35137e-14
1.88336e-14
5.79068e-15
3.46721e-14
3.46714e-14
3.46696e-14
3.4666e-14
3.46589e-14
3.46452e-14
3.46189e-14
3.45692e-14
3.44765e-14
3.43056e-14
3.39958e-14
3.34448e-14
3.24877e-14
3.08777e-14
2.82919e-14
2.44189e-14
1.92071e-14
1.32434e-14
7.83635e-15
4.20154e-15
1.31957e-14
1.31955e-14
1.31949e-14
1.31937e-14
1.31912e-14
1.31865e-14
1.31776e-14
1.31608e-14
1.31297e-14
1.3073e-14
1.29715e-14
1.27938e-14
1.24911e-14
1.19938e-14
1.12157e-14
1.00778e-14
8.56469e-15
6.7973e-15
5.0524e-15
3.64138e-15
7.1554e-15
7.1553e-15
7.15505e-15
7.15452e-15
7.1535e-15
7.15154e-15
7.14782e-15
7.14089e-15
7.12815e-15
7.10515e-15
7.06452e-15
6.99444e-15
6.8771e-15
6.68783e-15
6.39679e-15
5.97637e-15
5.41666e-15
4.74526e-15
4.03654e-15
3.39131e-15
4.98226e-15
4.98221e-15
4.98208e-15
4.98182e-15
4.98132e-15
4.98035e-15
4.97854e-15
4.97519e-15
4.96909e-15
4.9582e-15
4.93921e-15
4.90692e-15
4.85372e-15
4.76926e-15
4.64124e-15
4.45802e-15
4.21384e-15
3.91561e-15
3.58729e-15
3.26647e-15
4.05363e-15
4.05361e-15
4.05353e-15
4.05339e-15
4.05311e-15
4.05258e-15
4.0516e-15
4.04979e-15
4.04654e-15
4.0408e-15
4.03092e-15
4.01436e-15
3.9875e-15
3.94553e-15
3.8828e-15
3.79393e-15
3.67589e-15
3.5306e-15
3.36703e-15
3.20065e-15
3.60983e-15
3.60981e-15
3.60977e-15
3.60968e-15
3.60952e-15
3.60921e-15
3.60864e-15
3.60759e-15
3.60574e-15
3.6025e-15
3.59701e-15
3.58795e-15
3.57348e-15
3.55122e-15
3.51843e-15
3.47255e-15
3.41204e-15
3.3376e-15
3.25299e-15
3.16507e-15
3.38286e-15
3.38285e-15
3.38282e-15
3.38277e-15
3.38267e-15
3.38248e-15
3.38213e-15
3.38151e-15
3.38042e-15
3.37853e-15
3.37538e-15
3.37025e-15
3.36219e-15
3.34998e-15
3.33227e-15
3.30781e-15
3.27589e-15
3.23682e-15
3.19234e-15
3.14566e-15
3.26241e-15
3.2624e-15
3.26239e-15
3.26235e-15
3.26229e-15
3.26217e-15
3.26196e-15
3.26159e-15
3.26093e-15
3.25983e-15
3.25799e-15
3.25506e-15
3.25052e-15
3.24374e-15
3.23407e-15
3.22089e-15
3.20388e-15
3.18322e-15
3.15978e-15
3.13508e-15
3.19744e-15
3.19744e-15
3.19743e-15
3.19741e-15
3.19737e-15
3.1973e-15
3.19717e-15
3.19695e-15
3.19656e-15
3.19591e-15
3.19485e-15
3.19318e-15
3.19063e-15
3.18688e-15
3.1816e-15
3.17451e-15
3.16547e-15
3.15459e-15
3.14231e-15
3.12937e-15
3.16232e-15
3.16232e-15
3.16232e-15
3.1623e-15
3.16228e-15
3.16224e-15
3.16216e-15
3.16203e-15
3.1618e-15
3.16143e-15
3.16082e-15
3.15988e-15
3.15847e-15
3.15642e-15
3.15358e-15
3.1498e-15
3.14504e-15
3.13937e-15
3.133e-15
3.12631e-15
3.14347e-15
3.14347e-15
3.14346e-15
3.14346e-15
3.14344e-15
3.14342e-15
3.14337e-15
3.1433e-15
3.14317e-15
3.14296e-15
3.14262e-15
3.1421e-15
3.14133e-15
3.14023e-15
3.13872e-15
3.13674e-15
3.13428e-15
3.13136e-15
3.12811e-15
3.1247e-15
3.13348e-15
3.13347e-15
3.13347e-15
3.13347e-15
3.13346e-15
3.13345e-15
3.13342e-15
3.13338e-15
3.13331e-15
3.13319e-15
3.13301e-15
3.13273e-15
3.13232e-15
3.13174e-15
3.13095e-15
3.12994e-15
3.12868e-15
3.1272e-15
3.12557e-15
3.12386e-15
3.12827e-15
3.12826e-15
3.12826e-15
3.12826e-15
3.12826e-15
3.12825e-15
3.12823e-15
3.12821e-15
3.12817e-15
3.12811e-15
3.12801e-15
3.12787e-15
3.12765e-15
3.12735e-15
3.12695e-15
3.12644e-15
3.12581e-15
3.12508e-15
3.12427e-15
3.12343e-15
3.1256e-15
3.1256e-15
3.1256e-15
3.1256e-15
3.1256e-15
3.12559e-15
3.12558e-15
3.12557e-15
3.12555e-15
3.12552e-15
3.12547e-15
3.12539e-15
3.12528e-15
3.12513e-15
3.12493e-15
3.12468e-15
3.12437e-15
3.12402e-15
3.12363e-15
3.12322e-15
3.12426e-15
3.12426e-15
3.12426e-15
3.12426e-15
3.12426e-15
3.12426e-15
3.12425e-15
3.12425e-15
3.12424e-15
3.12422e-15
3.1242e-15
3.12416e-15
3.1241e-15
3.12403e-15
3.12393e-15
3.12381e-15
3.12366e-15
3.12349e-15
3.12331e-15
3.12312e-15
3.12361e-15
3.12361e-15
3.12361e-15
3.12361e-15
3.12361e-15
3.1236e-15
3.1236e-15
3.1236e-15
3.12359e-15
3.12359e-15
3.12357e-15
3.12356e-15
3.12353e-15
3.12349e-15
3.12345e-15
3.12339e-15
3.12332e-15
3.12324e-15
3.12315e-15
3.12306e-15
3.12329e-15
3.12329e-15
3.12329e-15
3.12329e-15
3.12329e-15
3.12329e-15
3.12329e-15
3.12329e-15
3.12329e-15
3.12328e-15
3.12328e-15
3.12327e-15
3.12325e-15
3.12324e-15
3.12322e-15
3.12319e-15
3.12316e-15
3.12312e-15
3.12308e-15
3.12304e-15
3.12314e-15
3.12314e-15
3.12314e-15
3.12314e-15
3.12314e-15
3.12314e-15
3.12314e-15
3.12314e-15
3.12314e-15
3.12314e-15
3.12314e-15
3.12313e-15
3.12313e-15
3.12312e-15
3.12311e-15
3.1231e-15
3.12308e-15
3.12307e-15
3.12305e-15
3.12303e-15
3.12308e-15
3.12308e-15
3.12308e-15
3.12308e-15
3.12308e-15
3.12308e-15
3.12308e-15
3.12307e-15
3.12307e-15
3.12307e-15
3.12307e-15
3.12307e-15
3.12307e-15
3.12306e-15
3.12306e-15
3.12305e-15
3.12305e-15
3.12304e-15
3.12303e-15
3.12303e-15
3.12304e-15
3.12304e-15
3.12304e-15
3.12304e-15
3.12304e-15
3.12304e-15
3.12304e-15
3.12304e-15
3.12304e-15
3.12304e-15
3.12304e-15
3.12304e-15
3.12304e-15
3.12304e-15
3.12304e-15
3.12304e-15
3.12303e-15
3.12303e-15
3.12303e-15
3.12302e-15
3.12303e-15
3.12303e-15
3.12303e-15
3.12303e-15
3.12303e-15
3.12303e-15
3.12303e-15
3.12303e-15
3.12303e-15
3.12303e-15
3.12303e-15
3.12303e-15
3.12303e-15
3.12303e-15
3.12303e-15
3.12303e-15
3.12303e-15
3.12302e-15
3.12302e-15
3.12302e-15
3.12303e-15
3.12303e-15
3.12303e-15
3.12303e-15
3.12303e-15
3.12303e-15
3.12303e-15
3.12303e-15
3.12303e-15
3.12303e-15
3.12303e-15
3.12302e-15
3.12302e-15
3.12302e-15
3.12302e-15
3.12302e-15
3.12302e-15
3.12302e-15
3.12302e-15
3.12302e-15
3.12302e-15
3.12302e-15
3.12302e-15
3.12302e-15
3.12302e-15
3.12302e-15
3.12302e-15
3.12302e-15
3.12302e-15
3.12302e-15
3.12302e-15
3.12302e-15
3.12302e-15
3.12302e-15
3.12302e-15
3.12302e-15
3.12302e-15
3.12302e-15
3.12302e-15
3.12302e-15
3.12302e-15
3.12302e-15
3.12302e-15
3.12302e-15
3.12302e-15
3.12302e-15
3.12302e-15
3.12302e-15
3.12302e-15
3.12302e-15
3.12302e-15
3.12302e-15
3.12302e-15
3.12302e-15
3.12302e-15
3.12302e-15
3.12302e-15
3.12302e-15
3.12302e-15
3.12302e-15
3.12302e-15
3.12302e-15
3.12302e-15
3.12302e-15
3.12302e-15
3.12302e-15
3.12302e-15
3.12302e-15
3.12302e-15
3.12302e-15
3.12302e-15
3.12302e-15
3.12302e-15
3.12302e-15
3.12302e-15
3.12302e-15
3.12302e-15
3.12302e-15
3.12302e-15
3.12302e-15
3.12302e-15
3.12302e-15
3.12302e-15
3.12302e-15
3.12302e-15
3.12302e-15
3.12302e-15
3.12302e-15
3.12302e-15
3.12302e-15
3.12302e-15
3.12302e-15
3.12302e-15
3.12302e-15
3.12302e-15
3.12302e-15
3.12302e-15
3.12302e-15
3.12302e-15
3.12302e-15
3.12302e-15
3.12302e-15
3.12302e-15
3.12302e-15
3.12302e-15
3.12302e-15
3.12302e-15
3.12302e-15
3.12302e-15
3.12302e-15
3.12302e-15
3.12302e-15
3.12302e-15
3.12302e-15
3.12302e-15
3.12302e-15
3.12302e-15
3.12302e-15
3.12302e-15
3.12302e-15
3.12302e-15
3.12302e-15
3.12302e-15
3.12302e-15
3.12302e-15
3.12302e-15
3.12302e-15
3.12302e-15
3.12302e-15
3.12302e-15
3.12302e-15
3.12302e-15
3.12302e-15
3.12302e-15
3.12302e-15
3.12302e-15
3.12302e-15
3.12302e-15
3.12302e-15
3.12302e-15
3.12302e-15
3.12302e-15
3.12302e-15
3.12302e-15
3.12302e-15
3.12302e-15
3.12302e-15
3.12302e-15
3.12302e-15
3.12302e-15
3.12302e-15
3.12302e-15
3.12302e-15
3.12302e-15
3.12302e-15
3.12302e-15
3.12302e-15
3.12302e-15
3.12302e-15
3.12302e-15
3.12302e-15
3.12302e-15
3.12302e-15
3.12302e-15
3.12302e-15
3.12302e-15
3.12302e-15
3.12302e-15
3.12302e-15
3.12302e-15
3.12302e-15
3.12302e-15
3.12302e-15
3.12302e-15
3.12302e-15
3.12302e-15
3.12302e-15
3.12302e-15
3.12302e-15
3.12302e-15
3.12302e-15
3.12302e-15
3.12302e-15
3.12302e-15
3.12302e-15
3.12302e-15
3.12302e-15
3.12302e-15
3.12302e-15
3.12302e-15
3.12302e-15
3.12302e-15
3.12302e-15
3.12302e-15
3.12302e-15
3.12302e-15
3.12302e-15
3.12302e-15
3.12302e-15
3.12302e-15
3.12302e-15
3.12302e-15
3.12302e-15
3.12302e-15
3.12302e-15
3.12302e-15
3.12302e-15
3.12302e-15
3.12302e-15
3.12302e-15
3.12302e-15
3.12302e-15
3.12302e-15
3.12302e-15
3.12302e-15
3.12302e-15
3.12302e-15
3.12302e-15
3.12302e-15
3.12302e-15
3.12302e-15
3.12302e-15
3.12302e-15
3.12302e-15
3.12302e-15
3.12302e-15
3.12302e-15
3.12302e-15
3.12302e-15
3.12302e-15
3.12302e-15
3.12302e-15
3.12302e-15
3.12302e-15
3.12302e-15
3.12302e-15
3.12302e-15
3.12302e-15
3.12302e-15
3.12302e-15
3.12302e-15
3.12302e-15
3.12302e-15
3.12302e-15
3.12302e-15
3.12302e-15
3.12302e-15
3.12302e-15
3.12302e-15
3.12302e-15
3.12302e-15
3.12302e-15
3.12302e-15
3.12302e-15
3.12302e-15
3.12302e-15
3.12302e-15
3.12302e-15
3.12302e-15
3.12302e-15
3.12302e-15
3.12302e-15
3.12302e-15
3.12302e-15
3.12302e-15
3.12302e-15
3.12302e-15
3.12302e-15
3.12302e-15
3.12302e-15
3.12302e-15
3.12302e-15
3.12302e-15
3.12302e-15
3.12302e-15
3.12302e-15
3.12302e-15
3.12302e-15
3.12302e-15
3.12302e-15
3.12302e-15
3.12302e-15
3.12302e-15
3.12302e-15
3.12302e-15
3.12302e-15
3.12302e-15
3.12302e-15
3.12302e-15
3.12302e-15
3.12302e-15
3.12302e-15
3.12302e-15
3.12302e-15
3.12302e-15
3.12302e-15
3.12302e-15
3.12302e-15
3.12302e-15
3.12302e-15
3.12302e-15
3.12302e-15
3.12302e-15
3.12302e-15
3.12302e-15
3.12302e-15
3.12302e-15
3.12302e-15
3.12302e-15
3.12302e-15
3.12302e-15
3.12302e-15
3.12302e-15
3.12302e-15
3.12302e-15
3.12302e-15
3.12302e-15
3.12302e-15
3.12302e-15
3.12302e-15
3.12302e-15
3.12302e-15
3.12302e-15
3.12302e-15
3.12302e-15
3.12302e-15
3.12302e-15
3.12302e-15
3.12302e-15
3.12302e-15
3.12302e-15
3.12302e-15
3.12302e-15
3.12302e-15
3.12302e-15
3.12302e-15
3.12302e-15
3.12302e-15
3.12302e-15
3.12302e-15
3.12302e-15
3.12302e-15
3.12302e-15
3.12302e-15
3.12302e-15
3.12302e-15
3.12302e-15
3.12302e-15
3.12302e-15
3.12302e-15
3.12302e-15
3.12302e-15
3.12302e-15
3.12302e-15
3.12302e-15
3.12302e-15
3.12302e-15
3.12302e-15
3.12302e-15
3.12302e-15
3.12302e-15
3.12302e-15
3.12302e-15
3.12302e-15
3.12302e-15
3.12302e-15
3.12302e-15
3.12302e-15
3.12302e-15
3.12302e-15
3.12302e-15
3.12302e-15
3.12302e-15
3.12302e-15
3.12302e-15
3.12302e-15
3.12302e-15
3.12302e-15
3.12302e-15
3.12302e-15
3.12302e-15
3.12302e-15
3.12302e-15
3.12302e-15
3.12302e-15
3.12302e-15
3.12302e-15
3.12302e-15
3.12302e-15
3.12302e-15
3.12302e-15
3.12302e-15
3.12302e-15
3.12302e-15
3.12302e-15
3.12302e-15
3.12302e-15
3.12302e-15
3.12302e-15
3.12302e-15
3.12302e-15
3.12302e-15
3.12302e-15
3.12302e-15
3.12302e-15
3.12302e-15
3.12302e-15
3.12302e-15
3.12302e-15
3.12302e-15
3.12302e-15
3.12302e-15
3.12302e-15
3.12302e-15
3.12302e-15
3.12302e-15
3.12302e-15
3.12302e-15
3.12302e-15
3.12302e-15
)
;

boundaryField
{
    topWall
    {
        type            zeroGradient;
    }
    bottomWall
    {
        type            zeroGradient;
    }
    sideWallL
    {
        type            symmetry;
    }
    sideWallR
    {
        type            calculated;
        value           uniform 0;
    }
    frontAndBack
    {
        type            empty;
    }
}


// ************************************************************************* //
