/*--------------------------------*- C++ -*----------------------------------*\
  =========                 |
  \\      /  F ield         | OpenFOAM: The Open Source CFD Toolbox
   \\    /   O peration     | Website:  https://openfoam.org
    \\  /    A nd           | Version:  7
     \\/     M anipulation  |
\*---------------------------------------------------------------------------*/
FoamFile
{
    version     2.0;
    format      ascii;
    class       volScalarField;
    location    "18";
    object      gradTx;
}
// * * * * * * * * * * * * * * * * * * * * * * * * * * * * * * * * * * * * * //

dimensions      [0 -1 0 1 0 0 0];

internalField   nonuniform List<scalar> 
900
(
-13.8206
-42.8622
-76.2662
-117.504
-170.986
-242.659
-340.889
-477.854
-671.846
-951.267
-1361.93
-1981.33
-2948.61
-4534.39
-7322.92
-12755.4
-24976.5
-57835.3
-163158
-539651
-39.7614
-123.273
-219.201
-337.388
-490.282
-694.559
-973.5
-1360.67
-1905.88
-2685.21
-3818.68
-5502.76
-8073.27
-12133.4
-18826.8
-30436.8
-51684.6
-92153.3
-167977
-282535
-62.5514
-193.81
-344.203
-528.796
-766.469
-1082.22
-1510.46
-2099.93
-2921.41
-4079.99
-5735.36
-8136.08
-11678.4
-17007.3
-25185.9
-37947.4
-57939.4
-88376.9
-129896
-169015
-81.0455
-250.895
-444.807
-681.549
-984.335
-1383.41
-1919.56
-2649.24
-3651.95
-5041.41
-6982.34
-9715.44
-13593.7
-19130.2
-27047.1
-38276.1
-53757.7
-73660.9
-95361.8
-110097
-94.5383
-292.349
-517.178
-789.85
-1135.72
-1587.13
-2186.7
-2991.63
-4079.68
-5557.23
-7569.89
-10315.6
-14058.1
-19133.5
-25930.8
-34801.1
-45810.5
-58216.4
-69652.8
-75611.4
-102.809
-317.528
-560.324
-852.544
-1219.7
-1693.6
-2314.96
-3136.65
-4227.63
-5677.64
-7601.94
-10144.8
-13478
-17786.6
-23227.7
-29838.1
-37362.6
-44999.9
-51170.4
-53661.3
-106.085
-327.203
-575.829
-872.574
-1241.57
-1712.15
-2320.7
-3112.73
-4145.02
-5487.41
-7223.4
-9447.91
-12258.8
-15737.1
-19908.2
-24676
-29728.8
-34441.7
-37854.5
-38874.3
-104.955
-323.253
-567.256
-855.924
-1210.99
-1658.15
-2228.23
-2958.25
-3892.21
-5080.95
-6580.44
-8447
-10727.4
-13441
-16551.5
-19927.5
-23298.7
-26230.5
-28157.2
-28525.4
-100.238
-308.273
-539.393
-810.356
-1139.96
-1549.77
-2064.78
-2713.77
-3529.09
-4545.63
-5798.08
-7315.84
-9114.24
-11181.3
-13459.6
-15825.4
-18072.7
-19913.7
-21017
-21094.1
-92.8618
-285.168
-497.513
-744.215
-1040.97
-1405.28
-1856.66
-2416.6
-3107.85
-3953.01
-4971.71
-6176.23
-7564.74
-9112.46
-10761.2
-12409.8
-13910.2
-15076.4
-15713.1
-15665.2
-83.7482
-256.81
-446.758
-665.47
-925.678
-1241.15
-1626.69
-2097.75
-2669.7
-3356.29
-4167.28
-5104.98
-6159.62
-7303.82
-8487.11
-9632.32
-10636.6
-11380.7
-11748.2
-11653.9
-73.7332
-225.783
-391.695
-581.073
-803.982
-1070.99
-1392.98
-1780.79
-2244.34
-2791.39
-3425.66
-4144.34
-4935.06
-5772.7
-6616.83
-7410.89
-8084.76
-8562.09
-8772.81
-8668.76
-63.5145
-194.23
-336.065
-496.605
-683.635
-905.077
-1168.77
-1482.07
-1851.1
-2279.81
-2768.49
-3312.19
-3898.75
-4507.16
-5106.52
-5656.4
-6109.47
-6416.81
-6535.69
-6438.47
-53.6292
-163.791
-282.686
-416.187
-570.197
-750.538
-962.736
-1211.64
-1500.87
-1832.01
-2203.69
-2610.45
-3041.66
-3480.65
-3904.53
-4284.86
-4589.9
-4788.17
-4853.38
-4769.42
-44.4538
-135.605
-233.485
-342.561
-467.227
-611.69
-779.767
-974.576
-1198.1
-1450.63
-1730.11
-2031.46
-2345.95
-2660.86
-2959.54
-3222.25
-3427.75
-3555.73
-3589.85
-3520.61
-36.2203
-110.364
-189.605
-277.281
-376.614
-490.596
-621.815
-772.219
-942.788
-1133.15
-1341.15
-1562.44
-1790.17
-2014.84
-2224.56
-2405.73
-2544.16
-2626.7
-2643.11
-2587.77
-29.0403
-88.3939
-151.546
-220.956
-298.951
-387.627
-488.713
-603.384
-732.035
-874.015
-1027.36
-1188.54
-1352.32
-1511.78
-1658.52
-1783.21
-1876.38
-1929.51
-1936.13
-1892.9
-22.933
-69.7359
-119.329
-173.498
-233.901
-301.989
-378.895
-465.304
-561.289
-666.138
-778.186
-894.68
-1011.72
-1124.32
-1226.6
-1312.21
-1374.83
-1408.92
-1410.39
-1377.23
-17.8514
-54.2345
-92.6392
-134.345
-180.52
-232.153
-289.979
-354.376
-425.258
-501.961
-583.146
-666.721
-749.833
-828.933
-899.945
-958.548
-1000.55
-1022.34
-1021.31
-996.261
-13.7067
-41.6078
-70.9549
-102.654
-137.517
-176.213
-219.209
-266.698
-318.531
-374.142
-432.486
-492.012
-550.661
-605.937
-655.031
-695.02
-723.122
-736.978
-734.934
-716.261
-10.3873
-31.507
-53.6487
-77.4463
-103.459
-132.133
-163.759
-198.428
-235.975
-275.943
-317.541
-359.636
-400.763
-439.183
-472.971
-500.16
-518.904
-527.665
-525.389
-511.639
-7.77311
-23.561
-40.0628
-57.7174
-76.9056
-97.9222
-120.946
-146.008
-172.959
-201.44
-230.867
-260.425
-289.083
-315.638
-338.782
-357.193
-369.652
-375.157
-373.033
-363.02
-5.74655
-17.4069
-29.5607
-42.5085
-56.507
-71.749
-88.3424
-106.288
-125.46
-145.586
-166.242
-186.85
-206.691
-224.94
-240.713
-253.126
-261.376
-264.809
-262.996
-255.781
-4.1986
-12.7104
-21.5596
-30.9501
-41.0533
-51.994
-63.8358
-76.5662
-90.0842
-104.189
-118.577
-132.842
-146.489
-158.957
-169.649
-177.979
-183.418
-185.542
-184.078
-178.932
-3.03271
-9.17583
-15.5474
-22.2844
-29.5001
-37.2745
-45.6442
-54.5924
-64.0412
-73.8453
-83.7899
-93.5936
-102.918
-111.383
-118.591
-124.154
-127.723
-129.026
-127.887
-124.253
-2.16627
-6.55099
-11.0889
-15.8711
-20.9719
-26.442
-32.3016
-38.5345
-45.0822
-51.8411
-58.6616
-65.3504
-71.6781
-77.3897
-82.2207
-85.9152
-88.2467
-89.0379
-88.1782
-85.636
-1.5306
-4.6265
-7.82416
-11.1836
-14.7531
-18.5645
-22.6287
-26.9313
-31.4298
-36.0515
-40.693
-45.2231
-49.4875
-53.3163
-56.5347
-58.975
-60.49
-60.9655
-60.3315
-58.5698
-1.06997
-3.23278
-5.46256
-7.79853
-10.2718
-12.9021
-15.6949
-18.6386
-21.703
-24.8373
-27.9714
-31.0168
-33.8704
-36.42
-38.5507
-40.1533
-41.1324
-41.4149
-40.9566
-39.747
-0.740168
-2.23544
-3.77438
-5.38241
-7.07934
-8.87736
-10.7789
-12.7752
-14.8448
-16.9532
-19.0528
-21.0847
-22.9806
-24.6668
-26.0684
-27.1145
-27.7437
-27.9094
-27.5837
-26.7609
-0.506768
-1.52997
-2.58141
-3.67738
-4.83046
-6.04802
-7.33102
-8.67289
-10.0588
-11.4653
-12.8608
-14.2062
-15.4567
-16.5642
-17.48
-18.1586
-18.5606
-18.6564
-18.4286
-17.8738
-0.343459
-1.03658
-1.74779
-2.48748
-3.26352
-4.08035
-4.93817
-5.83224
-6.75242
-7.68307
-8.6032
-9.48719
-10.3059
-11.0281
-11.6225
-12.0598
-12.3151
-12.3696
-12.2125
-11.8419
-0.230454
-0.695308
-1.17166
-1.66606
-2.1834
-2.72633
-3.29472
-3.88521
-4.49098
-5.10166
-5.70351
-6.27984
-6.8118
-7.27935
-7.66245
-7.9425
-8.10363
-8.13405
-8.02705
-7.78168
-0.153106
-0.461806
-0.77775
-1.10504
-1.44668
-1.80425
-2.17748
-2.56407
-2.95947
-3.35687
-3.74736
-4.12017
-4.46321
-4.76367
-5.00884
-5.18694
-5.28799
-5.30461
-5.23265
-5.07165
-0.100726
-0.303735
-0.511269
-0.725871
-0.949389
-1.18272
-1.42562
-1.67651
-1.9324
-2.18886
-2.44017
-2.67942
-2.89893
-3.09058
-3.24635
-3.35883
-3.42179
-3.43063
-3.38281
-3.2781
-0.0656268
-0.197845
-0.332867
-0.472258
-0.617136
-0.76802
-0.924691
-1.08609
-1.25028
-1.41442
-1.57483
-1.72715
-1.86653
-1.98785
-2.08609
-2.15663
-2.19559
-2.20014
-2.16872
-2.10122
-0.0423495
-0.127642
-0.214657
-0.304349
-0.397392
-0.494078
-0.594236
-0.697167
-0.801621
-0.905787
-1.00735
-1.10355
-1.19135
-1.26756
-1.32906
-1.37299
-1.39693
-1.39917
-1.37875
-1.33563
-0.0270703
-0.081573
-0.137125
-0.194305
-0.253514
-0.314914
-0.378379
-0.443454
-0.50934
-0.574897
-0.638669
-0.69894
-0.753818
-0.801327
-0.839538
-0.866687
-0.881306
-0.882332
-0.869199
-0.841892
-0.0171431
-0.0516484
-0.0867879
-0.122909
-0.160249
-0.198896
-0.23876
-0.279549
-0.320759
-0.361676
-0.401394
-0.438853
-0.472883
-0.502272
-0.525835
-0.542495
-0.551357
-0.551778
-0.543418
-0.526275
-0.0107594
-0.0324097
-0.0544404
-0.0770582
-0.100402
-0.12452
-0.149349
-0.174704
-0.200269
-0.225601
-0.250144
-0.273243
-0.294184
-0.312227
-0.326651
-0.336801
-0.342137
-0.342271
-0.337
-0.326329
-0.00669837
-0.0201735
-0.033875
-0.0479252
-0.062405
-0.0773392
-0.092686
-0.108328
-0.12407
-0.13964
-0.154695
-0.168839
-0.181636
-0.192638
-0.201407
-0.207551
-0.210744
-0.210753
-0.207459
-0.200867
-0.00414639
-0.0124856
-0.0209589
-0.0296381
-0.03857
-0.0477673
-0.0572022
-0.0668014
-0.0764445
-0.0859649
-0.0951545
-0.103772
-0.111554
-0.11823
-0.123538
-0.12724
-0.129142
-0.129105
-0.127059
-0.123008
-0.00256912
-0.00773491
-0.0129801
-0.0183469
-0.0238624
-0.0295328
-0.0353398
-0.0412377
-0.0471521
-0.052981
-0.0585976
-0.0638552
-0.0685945
-0.0726516
-0.0758685
-0.0781027
-0.0792373
-0.0791898
-0.0779184
-0.0754266
-0.00162255
-0.00488425
-0.0081938
-0.0115765
-0.0150481
-0.0186116
-0.0222548
-0.0259486
-0.0296462
-0.033284
-0.0367833
-0.0400531
-0.0429951
-0.0455085
-0.0474959
-0.0488703
-0.04956
-0.0495148
-0.0487097
-0.0471472
-0.00109255
-0.00328832
-0.00551484
-0.00778823
-0.0101183
-0.0125065
-0.0149441
-0.0174114
-0.0198771
-0.0222989
-0.0246245
-0.0267939
-0.0287424
-0.0304036
-0.0317138
-0.0326159
-0.0330633
-0.0330234
-0.0324799
-0.0314351
-0.000855674
-0.00257511
-0.00431781
-0.00609591
-0.00791664
-0.00978077
-0.0116813
-0.0136027
-0.0155205
-0.0174019
-0.0192065
-0.0208878
-0.0223959
-0.0236798
-0.0246906
-0.0253844
-0.0257255
-0.0256889
-0.0252626
-0.0244483
)
;

boundaryField
{
    topWall
    {
        type            calculated;
        value           nonuniform List<scalar> 
20
(
-0.000855674
-0.00257511
-0.00431781
-0.00609591
-0.00791664
-0.00978077
-0.0116813
-0.0136027
-0.0155205
-0.0174019
-0.0192065
-0.0208878
-0.0223959
-0.0236798
-0.0246906
-0.0253844
-0.0257255
-0.0256889
-0.0252626
-0.0244483
)
;
    }
    bottomWall
    {
        type            calculated;
        value           nonuniform List<scalar> 
20
(
-13.8206
-42.8622
-76.2662
-117.504
-170.986
-242.659
-340.889
-477.854
-671.846
-951.267
-1361.93
-1981.33
-2948.61
-4534.39
-7322.92
-12755.4
-24976.5
-57835.3
-163158
-539651
)
;
    }
    sideWallL
    {
        type            symmetry;
    }
    sideWallR
    {
        type            calculated;
        value           nonuniform List<scalar> 
45
(
-835094
-347908
-184855
-114123
-76520.6
-53685
-38652.1
-28258
-20846.2
-15455.1
-11483.4
-8533.9
-6333.6
-4688.92
-3459.49
-2541.8
-1858.62
-1351.88
-977.675
-702.741
-501.883
-356.037
-250.823
-175.439
-121.813
-83.9455
-57.4081
-38.9553
-26.2258
-17.5153
-11.6036
-7.62466
-4.96906
-3.21164
-2.05854
-1.30844
-0.824729
-0.51553
-0.319657
-0.196755
-0.120487
-0.0738789
-0.0461788
-0.0307887
-0.0239453
)
;
    }
    frontAndBack
    {
        type            empty;
    }
}


// ************************************************************************* //
