/*--------------------------------*- C++ -*----------------------------------*\
  =========                 |
  \\      /  F ield         | OpenFOAM: The Open Source CFD Toolbox
   \\    /   O peration     | Website:  https://openfoam.org
    \\  /    A nd           | Version:  7
     \\/     M anipulation  |
\*---------------------------------------------------------------------------*/
FoamFile
{
    version     2.0;
    format      ascii;
    class       volScalarField;
    location    "18";
    object      gradTy;
}
// * * * * * * * * * * * * * * * * * * * * * * * * * * * * * * * * * * * * * //

dimensions      [0 -1 0 1 0 0 0];

internalField   nonuniform List<scalar> 
900
(
-149198
-149252
-149364
-149547
-149819
-150209
-150757
-151523
-152595
-154101
-156232
-159281
-163716
-170303
-180384
-196453
-223576
-273114
-373564
-604250
-127562
-127610
-127713
-127878
-128124
-128474
-128963
-129643
-130585
-131893
-133714
-136266
-139869
-144996
-152342
-162859
-177534
-195822
-208075
-162560
-108631
-108672
-108758
-108898
-109103
-109392
-109792
-110338
-111080
-112084
-113436
-115248
-117649
-120768
-124646
-128988
-132485
-131061
-113992
-58446.2
-92088.2
-92120.2
-92186.7
-92293.1
-92447.8
-92662.4
-92952.7
-93338.6
-93844.4
-94496.9
-95321.6
-96331.4
-97501.1
-98711.2
-99627.3
-99456
-96481
-87327.1
-66320.5
-27083.5
-77667.7
-77689.5
-77734.4
-77805
-77905.3
-78040.4
-78215.5
-78435.8
-78702.9
-79011.4
-79339.2
-79631.1
-79768.5
-79515.3
-78424.9
-75696
-69987
-59300.8
-41326
-15109.5
-65140.1
-65151.7
-65175
-65210.3
-65257.7
-65316.2
-65382.7
-65450.2
-65503.8
-65515.5
-65434
-65169
-64566.3
-63369.7
-61169.9
-57347.1
-51044.8
-41265.4
-27270
-9467.12
-54304
-54306.1
-54309.7
-54313
-54313.1
-54304.3
-54277.6
-54217.6
-54099.2
-53882.2
-53502.5
-52860.7
-51804.7
-50110.1
-47459.2
-43433.9
-37548.5
-29370
-18779.1
-6356.74
-44979.3
-44973.4
-44960.4
-44937
-44898.1
-44835.4
-44735.7
-44579.5
-44336.8
-43963.5
-43395
-42538.2
-41262.9
-39393.7
-36707.2
-32945.1
-27856.6
-21288.9
-13328.6
-4451.48
-37002.7
-36990.6
-36964.7
-36920.9
-36852.9
-36750.9
-36600.1
-36379.3
-36058.4
-35595
-34930.5
-33986.2
-32659.7
-30823.6
-28331.1
-25033.3
-20813.5
-15644.8
-9659.44
-3200.73
-30224.3
-30207.8
-30172.9
-30115.2
-30028
-29900.9
-29719.4
-29462.8
-29103.3
-28603.4
-27914
-26972.6
-25703.1
-24018
-21825.7
-19045.6
-15632.6
-11609.5
-7099.58
-2340.71
-24505.3
-24486.2
-24445.9
-24380.3
-24282.8
-24143.3
-23948.5
-23679.7
-23312.7
-22816.2
-22151
-21270.1
-20119.2
-18640.4
-16779.4
-14496.1
-11780.5
-8670.59
-5266.15
-1730.31
-19716.9
-19696.6
-19654.3
-19585.9
-19485.4
-19343.9
-19149.3
-18886
-18533.7
-18067.4
-17457.2
-16668.6
-15664.4
-14407.7
-12867.7
-11027.1
-8891.81
-6500.01
-3927.94
-1287.44
-15739.8
-15719.7
-15677.8
-15610.7
-15513
-15376.9
-15192.5
-14946.7
-14623.4
-14203.2
-13664
-12981.2
-12130.1
-11087.8
-9838.04
-8375.54
-6712.01
-4880.68
-2938.1
-961.244
-12464.3
-12445.3
-12405.7
-12342.7
-12251.6
-12126.3
-11958.3
-11737.3
-11450.8
-11084.3
-10621.6
-10045.9
-9340.86
-8493.07
-7494.55
-6346.09
-5060.4
-3664.37
-2199.33
-718.529
-9789.85
-9772.44
-9736.42
-9679.36
-9597.51
-9485.78
-9337.57
-9144.85
-8898.15
-8586.78
-8199.29
-7724.24
-7151.28
-6472.75
-5685.46
-4792.78
-3806.34
-2747.05
-1644.86
-536.782
-7625.44
-7610.02
-7578.23
-7528.09
-7456.62
-7359.81
-7232.56
-7068.76
-6861.37
-6602.69
-6284.76
-5899.94
-5441.84
-4906.32
-4292.77
-3605.3
-2853.72
-2053.93
-1227.49
-400.216
-5889.6
-5876.31
-5848.97
-5806.04
-5745.19
-5663.32
-5556.58
-5420.4
-5249.66
-5038.9
-4782.65
-4475.94
-4114.89
-3697.5
-3224.38
-2699.53
-2130.85
-1530.2
-913.066
-297.478
-4510.21
-4499.02
-4476.05
-4440.11
-4389.43
-4321.68
-4233.96
-4122.94
-3984.95
-3816.17
-3612.9
-3371.96
-3091.08
-2769.46
-2408.23
-2010.89
-1583.57
-1135.06
-676.404
-220.237
-3424.21
-3414.98
-3396.08
-3366.61
-3325.24
-3270.22
-3199.46
-3110.54
-3000.85
-2867.78
-2708.86
-2522.08
-2306.19
-2061.02
-1787.81
-1489.45
-1170.62
-837.742
-498.681
-162.285
-2577.19
-2569.72
-2554.46
-2530.73
-2497.56
-2453.67
-2397.54
-2327.45
-2241.59
-2138.17
-2015.57
-1872.56
-1708.49
-1523.49
-1318.74
-1096.52
-860.347
-614.871
-365.674
-118.948
-1922.76
-1916.83
-1904.72
-1885.94
-1859.78
-1825.33
-1781.49
-1727.06
-1660.8
-1581.49
-1488.1
-1379.87
-1256.51
-1118.3
-966.213
-802.046
-628.386
-448.577
-266.565
-86.6762
-1421.93
-1417.29
-1407.83
-1393.2
-1372.89
-1346.25
-1312.51
-1270.83
-1220.37
-1160.32
-1090.01
-1009.02
-917.225
-814.945
-702.983
-582.686
-455.949
-325.159
-193.093
-62.7651
-1042.27
-1038.7
-1031.42
-1020.19
-1004.65
-984.341
-958.725
-927.23
-889.283
-844.356
-792.032
-732.066
-664.449
-589.472
-507.768
-420.339
-328.553
-234.105
-138.939
-45.1493
-757.211
-754.497
-748.98
-740.484
-728.756
-713.477
-694.281
-670.779
-642.586
-609.36
-570.845
-526.908
-477.589
-423.135
-364.032
-301.014
-235.059
-167.361
-99.276
-32.2524
-545.22
-543.187
-539.06
-532.717
-523.981
-512.635
-498.429
-481.101
-460.397
-436.099
-408.049
-376.184
-340.558
-301.372
-258.991
-213.944
-166.927
-118.773
-70.4224
-22.8735
-389.073
-387.571
-384.524
-379.848
-373.423
-365.101
-354.713
-342.085
-327.052
-309.474
-289.258
-266.377
-240.888
-212.947
-182.821
-150.89
-117.642
-83.657
-49.5819
-16.1013
-275.16
-274.064
-271.842
-268.437
-263.769
-257.737
-250.229
-241.13
-230.334
-217.751
-203.33
-187.061
-168.996
-149.253
-128.026
-105.583
-82.2645
-58.4692
-34.6414
-11.2475
-192.852
-192.061
-190.461
-188.011
-184.659
-180.338
-174.972
-168.488
-160.816
-151.903
-141.718
-130.263
-117.579
-103.756
-88.93
-73.2896
-57.0695
-40.5434
-24.0134
-7.79557
-133.948
-133.385
-132.246
-130.504
-128.125
-125.063
-121.27
-116.699
-111.305
-105.055
-97.9327
-89.9442
-81.1222
-71.5305
-61.2663
-50.4598
-39.2716
-27.888
-16.5132
-5.36001
-92.198
-91.8013
-90.9991
-89.7747
-88.1042
-85.9589
-83.3072
-80.1181
-76.3642
-72.0257
-67.0941
-61.5761
-55.4966
-48.9014
-41.8579
-34.4554
-26.8032
-19.0268
-11.2634
-3.65556
-62.8882
-62.6119
-62.0535
-61.2021
-60.0422
-58.5551
-56.7205
-54.5188
-51.9329
-48.951
-45.5692
-41.7936
-37.6428
-33.1487
-28.358
-23.3312
-18.1419
-12.8742
-7.61951
-2.47265
-42.5086
-42.3182
-41.9338
-41.3482
-40.5514
-39.5314
-38.2753
-36.7707
-35.0071
-32.9777
-30.6809
-28.1219
-25.3139
-22.2792
-19.0495
-15.6656
-12.1766
-8.63844
-5.11158
-1.65863
-28.4735
-28.3437
-28.0819
-27.6833
-27.1417
-26.4493
-25.5981
-24.5802
-23.3894
-22.0216
-20.4766
-18.7583
-16.8762
-14.8454
-12.6874
-10.4293
-8.10375
-5.74749
-3.40032
-1.10325
-18.8998
-18.8123
-18.6359
-18.3675
-18.0031
-17.5379
-16.9668
-16.2851
-15.4889
-14.5759
-13.5464
-12.4034
-11.1534
-9.80671
-8.37757
-6.88396
-5.34726
-3.79157
-2.24279
-0.72763
-12.4316
-12.3732
-12.2555
-12.0766
-11.8339
-11.5246
-11.1453
-10.6932
-10.1659
-9.56241
-8.88287
-8.12958
-7.307
-6.422
-5.48398
-4.50472
-3.49813
-2.47986
-1.46667
-0.4758
-8.10285
-8.06429
-7.98658
-7.86855
-7.70863
-7.50493
-7.25552
-6.95862
-6.61288
-6.21768
-5.77336
-5.28152
-4.74515
-4.16881
-3.55863
-2.92225
-2.26868
-1.60797
-0.950879
-0.308452
-5.23334
-5.20813
-5.15734
-5.08026
-4.9759
-4.84312
-4.68072
-4.48764
-4.2631
-4.00678
-3.71899
-3.40083
-3.05429
-2.68236
-2.289
-1.87913
-1.45851
-1.03356
-0.611122
-0.198228
-3.34889
-3.33258
-3.29973
-3.24989
-3.18248
-3.09678
-2.99209
-2.86775
-2.72334
-2.55868
-2.37404
-2.17016
-1.94834
-1.71052
-1.45924
-1.19764
-0.929357
-0.658467
-0.389295
-0.126268
-2.1226
-2.11216
-2.09113
-2.05925
-2.01614
-1.9614
-1.89459
-1.81533
-1.72337
-1.61864
-1.50133
-1.37194
-1.23132
-1.08069
-0.921682
-0.756265
-0.586739
-0.415652
-0.245714
-0.0796937
-1.33136
-1.32475
-1.31144
-1.29127
-1.26402
-1.22943
-1.18726
-1.13729
-1.07936
-1.01346
-0.939724
-0.858472
-0.770252
-0.675842
-0.576255
-0.472729
-0.366694
-0.259734
-0.153528
-0.0497924
-0.824276
-0.820147
-0.811838
-0.799252
-0.782259
-0.760709
-0.734453
-0.703363
-0.667363
-0.626445
-0.580704
-0.530348
-0.47572
-0.417306
-0.355734
-0.291767
-0.226285
-0.16026
-0.0947215
-0.030719
-0.500037
-0.497513
-0.492435
-0.484748
-0.474374
-0.461226
-0.445218
-0.426279
-0.404365
-0.37948
-0.351684
-0.321109
-0.287966
-0.25255
-0.215244
-0.176508
-0.136874
-0.0969266
-0.0572841
-0.0185771
-0.290721
-0.289245
-0.286275
-0.28178
-0.275716
-0.268036
-0.25869
-0.24764
-0.234864
-0.220365
-0.204181
-0.186392
-0.16712
-0.14654
-0.124872
-0.102385
-0.0793853
-0.056211
-0.033219
-0.0107725
-0.150295
-0.149528
-0.147986
-0.145652
-0.142505
-0.13852
-0.133674
-0.127947
-0.121328
-0.113821
-0.105446
-0.0962445
-0.0862809
-0.0756453
-0.0644523
-0.05284
-0.0409664
-0.0290054
-0.0171405
-0.00555838
-0.0463086
-0.0460717
-0.0455954
-0.0448747
-0.0439031
-0.042673
-0.0411774
-0.0394103
-0.0373687
-0.0350537
-0.0324718
-0.0296357
-0.0265656
-0.0232892
-0.0198419
-0.016266
-0.0126103
-0.00892816
-0.0052759
-0.00171086
)
;

boundaryField
{
    topWall
    {
        type            calculated;
        value           uniform 0;
    }
    bottomWall
    {
        type            calculated;
        value           nonuniform List<scalar> 
20
(
-160737
-160792
-160908
-161097
-161378
-161781
-162349
-163145
-164261
-165832
-168066
-171280
-175991
-183074
-194128
-212366
-245150
-312272
-476491
-964906
)
;
    }
    sideWallL
    {
        type            symmetry;
    }
    sideWallR
    {
        type            calculated;
        value           nonuniform List<scalar> 
45
(
-604250
-162560
-58446.2
-27083.5
-15109.5
-9467.12
-6356.74
-4451.48
-3200.73
-2340.71
-1730.31
-1287.44
-961.244
-718.529
-536.782
-400.216
-297.478
-220.237
-162.285
-118.948
-86.6762
-62.7651
-45.1493
-32.2524
-22.8735
-16.1013
-11.2475
-7.79557
-5.36001
-3.65556
-2.47265
-1.65863
-1.10325
-0.72763
-0.4758
-0.308452
-0.198228
-0.126268
-0.0796937
-0.0497924
-0.030719
-0.0185771
-0.0107725
-0.00555838
-0.00171086
)
;
    }
    frontAndBack
    {
        type            empty;
    }
}


// ************************************************************************* //
