/*--------------------------------*- C++ -*----------------------------------*\
  =========                 |
  \\      /  F ield         | OpenFOAM: The Open Source CFD Toolbox
   \\    /   O peration     | Website:  https://openfoam.org
    \\  /    A nd           | Version:  7
     \\/     M anipulation  |
\*---------------------------------------------------------------------------*/
FoamFile
{
    version     2.0;
    format      ascii;
    class       volScalarField;
    location    "18";
    object      rhoc;
}
// * * * * * * * * * * * * * * * * * * * * * * * * * * * * * * * * * * * * * //

dimensions      [1 -3 0 0 0 0 0];

internalField   nonuniform List<scalar> 
900
(
1.13553e-13
1.13464e-13
1.13275e-13
1.12967e-13
1.12507e-13
1.11846e-13
1.10912e-13
1.09606e-13
1.07784e-13
1.05244e-13
1.01705e-13
9.67742e-14
8.99136e-14
8.04138e-14
6.74275e-14
5.02397e-14
2.93446e-14
9.48055e-15
5.1297e-16
2.13627e-20
8.6445e-16
8.62227e-16
8.5756e-16
8.49993e-16
8.38791e-16
8.22896e-16
8.00852e-16
7.70746e-16
7.30169e-16
6.76291e-16
6.06156e-16
5.17477e-16
4.10261e-16
2.89601e-16
1.69061e-16
7.11082e-17
1.63316e-17
1.11927e-18
5.51826e-21
6.7577e-26
8.19376e-18
8.15681e-18
8.07955e-18
7.95512e-18
7.77284e-18
7.51796e-18
7.17165e-18
6.71181e-18
6.11555e-18
5.36477e-18
4.45651e-18
3.41918e-18
2.33117e-18
1.32839e-18
5.72152e-19
1.57058e-19
2.03989e-20
7.40328e-22
3.09996e-24
6.18326e-28
1.03107e-19
1.02446e-19
1.01069e-19
9.88684e-20
9.56791e-20
9.12878e-20
8.54459e-20
7.79069e-20
6.84981e-20
5.72422e-20
4.45265e-20
3.12705e-20
1.89521e-20
9.26305e-21
3.29408e-21
7.28486e-22
7.91307e-23
3.03029e-24
2.87263e-26
8.75397e-29
1.81983e-21
1.80513e-21
1.77464e-21
1.72623e-21
1.65683e-21
1.56266e-21
1.43981e-21
1.2853e-21
1.09885e-21
8.85274e-22
6.57012e-22
4.35102e-22
2.45834e-22
1.11252e-22
3.69296e-23
7.98064e-24
9.65873e-25
5.61337e-26
1.523e-27
3.35431e-29
4.70371e-23
4.65981e-23
4.5691e-23
4.42601e-23
4.22272e-23
3.95029e-23
3.60063e-23
3.1699e-23
2.66339e-23
2.10124e-23
1.52267e-23
9.83897e-24
5.44947e-24
2.45678e-24
8.44513e-25
2.0499e-25
3.25861e-26
3.2836e-27
2.36846e-28
1.96641e-29
1.83423e-24
1.8158e-24
1.77784e-24
1.71825e-24
1.6342e-24
1.52263e-24
1.38111e-24
1.20925e-24
1.01047e-24
7.93835e-25
5.74985e-25
3.74473e-25
2.12521e-25
1.01209e-25
3.87759e-26
1.14834e-26
2.57364e-27
4.51699e-28
7.2323e-29
1.42415e-29
1.09722e-25
1.08607e-25
1.06316e-25
1.02733e-25
9.77035e-26
9.10676e-26
8.27093e-26
7.26337e-26
6.10613e-26
4.85167e-26
3.58581e-26
2.41799e-26
1.45461e-26
7.62002e-27
3.39924e-27
1.27474e-27
4.06236e-28
1.16398e-28
3.37904e-29
1.15982e-29
1.01245e-26
1.00267e-26
9.82586e-27
9.51243e-27
9.07362e-27
8.49618e-27
7.77052e-27
6.89673e-27
5.89178e-27
4.79615e-27
3.67621e-27
2.61758e-27
1.70698e-27
1.00643e-27
5.32249e-28
2.53264e-28
1.10895e-28
4.69292e-29
2.06334e-29
1.01316e-29
1.43688e-27
1.4245e-27
1.3991e-27
1.35947e-27
1.30401e-27
1.23102e-27
1.13914e-27
1.02805e-27
8.99284e-28
7.56947e-28
6.08134e-28
4.62427e-28
3.30274e-28
2.2043e-28
1.37493e-28
8.08513e-29
4.57422e-29
2.57113e-29
1.49211e-29
9.24954e-30
3.09626e-28
3.07406e-28
3.02851e-28
2.95742e-28
2.85783e-28
2.72643e-28
2.56031e-28
2.35797e-28
2.12061e-28
1.85338e-28
1.56628e-28
1.27393e-28
9.93731e-29
7.42623e-29
5.33138e-29
3.70629e-29
2.52953e-29
1.72645e-29
1.2022e-29
8.69057e-30
9.81798e-29
9.7633e-29
9.65105e-29
9.4757e-29
9.22957e-29
8.90374e-29
8.48951e-29
7.98055e-29
7.37559e-29
6.68139e-29
5.91518e-29
5.1054e-29
4.2897e-29
3.50971e-29
2.80349e-29
2.19826e-29
1.70608e-29
1.32415e-29
1.03905e-29
8.32383e-30
4.3282e-29
4.31048e-29
4.2741e-29
4.21721e-29
4.1372e-29
4.03093e-29
3.89512e-29
3.7269e-29
3.52458e-29
3.28849e-29
3.02183e-29
2.73118e-29
2.42643e-29
2.1199e-29
1.82465e-29
1.55246e-29
1.31201e-29
1.10788e-29
9.40646e-30
8.07758e-30
2.46308e-29
2.45591e-29
2.44119e-29
2.41816e-29
2.38573e-29
2.34255e-29
2.28716e-29
2.21812e-29
2.13433e-29
2.0353e-29
1.92147e-29
1.79451e-29
1.6574e-29
1.51434e-29
1.37032e-29
1.23057e-29
1.0998e-29
9.81677e-30
8.78453e-30
7.90971e-30
1.68251e-29
1.67908e-29
1.67203e-29
1.661e-29
1.64546e-29
1.62474e-29
1.5981e-29
1.56478e-29
1.52409e-29
1.47559e-29
1.41917e-29
1.35523e-29
1.28477e-29
1.20936e-29
1.13112e-29
1.05249e-29
9.75959e-30
9.03813e-30
8.37883e-30
7.79415e-30
1.30166e-29
1.2998e-29
1.29598e-29
1.29001e-29
1.2816e-29
1.27039e-29
1.25596e-29
1.23789e-29
1.21575e-29
1.18922e-29
1.15814e-29
1.12256e-29
1.08282e-29
1.03958e-29
9.93806e-30
9.46704e-30
8.99624e-30
8.53928e-30
8.10855e-30
7.71415e-30
1.0944e-29
1.0933e-29
1.09105e-29
1.08752e-29
1.08257e-29
1.07597e-29
1.06748e-29
1.05684e-29
1.0438e-29
1.02814e-29
1.00971e-29
9.88498e-30
9.64612e-30
9.38349e-30
9.10184e-30
8.8075e-30
8.50802e-30
8.21153e-30
7.92601e-30
7.65862e-30
9.72693e-30
9.72004e-30
9.70592e-30
9.68387e-30
9.6529e-30
9.61173e-30
9.55886e-30
9.49268e-30
9.41158e-30
9.31415e-30
9.19938e-30
9.06684e-30
8.91696e-30
8.75115e-30
8.5719e-30
8.38272e-30
8.18799e-30
7.99262e-30
7.80169e-30
7.62006e-30
8.97393e-30
8.96944e-30
8.96023e-30
8.94587e-30
8.92575e-30
8.89905e-30
8.86484e-30
8.82211e-30
8.76983e-30
8.70708e-30
8.63318e-30
8.54778e-30
8.45103e-30
8.34365e-30
8.22704e-30
8.10324e-30
7.97485e-30
7.84491e-30
7.71666e-30
7.59332e-30
8.4913e-30
8.48829e-30
8.48213e-30
8.47255e-30
8.45914e-30
8.44139e-30
8.41871e-30
8.39045e-30
8.35595e-30
8.31463e-30
8.26603e-30
8.20991e-30
8.14632e-30
8.07566e-30
7.99876e-30
7.91685e-30
7.83152e-30
7.74469e-30
7.65842e-30
7.57481e-30
8.1747e-30
8.17266e-30
8.16847e-30
8.16197e-30
8.1529e-30
8.14092e-30
8.12566e-30
8.1067e-30
8.08361e-30
8.05603e-30
8.02367e-30
7.98635e-30
7.94411e-30
7.89718e-30
7.84608e-30
7.79157e-30
7.73465e-30
7.67653e-30
7.61854e-30
7.56206e-30
7.96397e-30
7.96256e-30
7.9597e-30
7.95526e-30
7.94907e-30
7.94092e-30
7.93057e-30
7.91775e-30
7.90219e-30
7.88365e-30
7.86195e-30
7.83698e-30
7.80877e-30
7.77747e-30
7.74341e-30
7.70705e-30
7.66905e-30
7.63018e-30
7.5913e-30
7.5533e-30
7.82253e-30
7.82156e-30
7.8196e-30
7.81655e-30
7.81232e-30
7.80676e-30
7.79972e-30
7.79102e-30
7.78051e-30
7.76801e-30
7.75343e-30
7.7367e-30
7.71783e-30
7.69694e-30
7.67422e-30
7.64999e-30
7.62466e-30
7.59873e-30
7.57276e-30
7.54732e-30
7.72725e-30
7.72658e-30
7.72523e-30
7.72315e-30
7.72025e-30
7.71647e-30
7.71168e-30
7.70579e-30
7.69868e-30
7.69027e-30
7.68048e-30
7.66928e-30
7.65668e-30
7.64275e-30
7.62763e-30
7.61152e-30
7.59469e-30
7.57747e-30
7.5602e-30
7.54326e-30
7.66303e-30
7.66257e-30
7.66165e-30
7.66023e-30
7.65826e-30
7.65568e-30
7.65244e-30
7.64846e-30
7.64368e-30
7.63803e-30
7.63148e-30
7.624e-30
7.61561e-30
7.60636e-30
7.59634e-30
7.58567e-30
7.57454e-30
7.56315e-30
7.55173e-30
7.54052e-30
7.61984e-30
7.61953e-30
7.6189e-30
7.61793e-30
7.6166e-30
7.61486e-30
7.61267e-30
7.61e-30
7.60679e-30
7.60302e-30
7.59865e-30
7.59369e-30
7.58813e-30
7.58201e-30
7.5754e-30
7.56837e-30
7.56105e-30
7.55356e-30
7.54605e-30
7.53868e-30
7.59089e-30
7.59069e-30
7.59026e-30
7.58961e-30
7.58871e-30
7.58754e-30
7.58608e-30
7.58429e-30
7.58216e-30
7.57965e-30
7.57676e-30
7.57348e-30
7.56982e-30
7.5658e-30
7.56146e-30
7.55686e-30
7.55207e-30
7.54717e-30
7.54227e-30
7.53745e-30
7.5716e-30
7.57146e-30
7.57118e-30
7.57074e-30
7.57014e-30
7.56936e-30
7.56839e-30
7.5672e-30
7.56579e-30
7.56414e-30
7.56224e-30
7.56008e-30
7.55769e-30
7.55506e-30
7.55223e-30
7.54924e-30
7.54613e-30
7.54295e-30
7.53976e-30
7.53664e-30
7.55882e-30
7.55872e-30
7.55853e-30
7.55824e-30
7.55785e-30
7.55733e-30
7.55669e-30
7.55591e-30
7.55498e-30
7.5539e-30
7.55266e-30
7.55126e-30
7.5497e-30
7.548e-30
7.54616e-30
7.54423e-30
7.54222e-30
7.54017e-30
7.53812e-30
7.53611e-30
7.5504e-30
7.55034e-30
7.55022e-30
7.55002e-30
7.54976e-30
7.54943e-30
7.54901e-30
7.5485e-30
7.54789e-30
7.54719e-30
7.54638e-30
7.54548e-30
7.54447e-30
7.54338e-30
7.5422e-30
7.54096e-30
7.53967e-30
7.53836e-30
7.53704e-30
7.53576e-30
7.5449e-30
7.54486e-30
7.54478e-30
7.54466e-30
7.54449e-30
7.54427e-30
7.54399e-30
7.54366e-30
7.54327e-30
7.54282e-30
7.5423e-30
7.54172e-30
7.54108e-30
7.54038e-30
7.53963e-30
7.53884e-30
7.53802e-30
7.53718e-30
7.53635e-30
7.53553e-30
7.54134e-30
7.54131e-30
7.54126e-30
7.54118e-30
7.54107e-30
7.54093e-30
7.54075e-30
7.54054e-30
7.54029e-30
7.54e-30
7.53967e-30
7.5393e-30
7.53889e-30
7.53845e-30
7.53797e-30
7.53747e-30
7.53695e-30
7.53643e-30
7.5359e-30
7.53539e-30
7.53904e-30
7.53903e-30
7.53899e-30
7.53894e-30
7.53887e-30
7.53878e-30
7.53867e-30
7.53853e-30
7.53837e-30
7.53819e-30
7.53798e-30
7.53775e-30
7.53749e-30
7.53721e-30
7.53691e-30
7.5366e-30
7.53627e-30
7.53594e-30
7.53562e-30
7.53529e-30
7.53758e-30
7.53757e-30
7.53755e-30
7.53751e-30
7.53747e-30
7.53741e-30
7.53734e-30
7.53726e-30
7.53716e-30
7.53704e-30
7.53691e-30
7.53676e-30
7.5366e-30
7.53643e-30
7.53624e-30
7.53605e-30
7.53584e-30
7.53564e-30
7.53543e-30
7.53523e-30
7.53665e-30
7.53664e-30
7.53663e-30
7.53661e-30
7.53658e-30
7.53655e-30
7.5365e-30
7.53645e-30
7.53639e-30
7.53631e-30
7.53623e-30
7.53614e-30
7.53604e-30
7.53593e-30
7.53582e-30
7.5357e-30
7.53557e-30
7.53545e-30
7.53532e-30
7.5352e-30
7.53607e-30
7.53606e-30
7.53606e-30
7.53604e-30
7.53602e-30
7.536e-30
7.53598e-30
7.53594e-30
7.5359e-30
7.53586e-30
7.53581e-30
7.53575e-30
7.53569e-30
7.53563e-30
7.53555e-30
7.53548e-30
7.5354e-30
7.53533e-30
7.53525e-30
7.53517e-30
7.53571e-30
7.5357e-30
7.5357e-30
7.53569e-30
7.53568e-30
7.53566e-30
7.53565e-30
7.53563e-30
7.5356e-30
7.53558e-30
7.53555e-30
7.53551e-30
7.53547e-30
7.53543e-30
7.53539e-30
7.53535e-30
7.5353e-30
7.53525e-30
7.53521e-30
7.53516e-30
7.53548e-30
7.53548e-30
7.53548e-30
7.53547e-30
7.53546e-30
7.53546e-30
7.53545e-30
7.53543e-30
7.53542e-30
7.5354e-30
7.53538e-30
7.53536e-30
7.53534e-30
7.53532e-30
7.53529e-30
7.53526e-30
7.53524e-30
7.53521e-30
7.53518e-30
7.53515e-30
7.53534e-30
7.53534e-30
7.53534e-30
7.53534e-30
7.53533e-30
7.53533e-30
7.53532e-30
7.53532e-30
7.53531e-30
7.5353e-30
7.53529e-30
7.53527e-30
7.53526e-30
7.53524e-30
7.53523e-30
7.53521e-30
7.5352e-30
7.53518e-30
7.53516e-30
7.53515e-30
7.53526e-30
7.53526e-30
7.53526e-30
7.53526e-30
7.53525e-30
7.53525e-30
7.53525e-30
7.53524e-30
7.53524e-30
7.53523e-30
7.53523e-30
7.53522e-30
7.53521e-30
7.5352e-30
7.53519e-30
7.53518e-30
7.53517e-30
7.53516e-30
7.53515e-30
7.53514e-30
7.53521e-30
7.53521e-30
7.53521e-30
7.53521e-30
7.53521e-30
7.53521e-30
7.5352e-30
7.5352e-30
7.5352e-30
7.53519e-30
7.53519e-30
7.53519e-30
7.53518e-30
7.53518e-30
7.53517e-30
7.53516e-30
7.53516e-30
7.53515e-30
7.53515e-30
7.53514e-30
7.53518e-30
7.53518e-30
7.53518e-30
7.53518e-30
7.53518e-30
7.53518e-30
7.53518e-30
7.53518e-30
7.53517e-30
7.53517e-30
7.53517e-30
7.53517e-30
7.53516e-30
7.53516e-30
7.53516e-30
7.53515e-30
7.53515e-30
7.53515e-30
7.53514e-30
7.53514e-30
7.53516e-30
7.53516e-30
7.53516e-30
7.53516e-30
7.53516e-30
7.53516e-30
7.53516e-30
7.53516e-30
7.53516e-30
7.53516e-30
7.53516e-30
7.53516e-30
7.53515e-30
7.53515e-30
7.53515e-30
7.53515e-30
7.53515e-30
7.53514e-30
7.53514e-30
7.53514e-30
7.53515e-30
7.53515e-30
7.53515e-30
7.53515e-30
7.53515e-30
7.53515e-30
7.53515e-30
7.53515e-30
7.53515e-30
7.53515e-30
7.53515e-30
7.53515e-30
7.53515e-30
7.53515e-30
7.53515e-30
7.53514e-30
7.53514e-30
7.53514e-30
7.53514e-30
7.53514e-30
7.53515e-30
7.53515e-30
7.53515e-30
7.53515e-30
7.53515e-30
7.53515e-30
7.53515e-30
7.53515e-30
7.53515e-30
7.53515e-30
7.53515e-30
7.53515e-30
7.53515e-30
7.53514e-30
7.53514e-30
7.53514e-30
7.53514e-30
7.53514e-30
7.53514e-30
7.53514e-30
)
;

boundaryField
{
    topWall
    {
        type            zeroGradient;
    }
    bottomWall
    {
        type            zeroGradient;
    }
    sideWallL
    {
        type            symmetry;
    }
    sideWallR
    {
        type            zeroGradient;
    }
    frontAndBack
    {
        type            empty;
    }
}


// ************************************************************************* //
