/*--------------------------------*- C++ -*----------------------------------*\
  =========                 |
  \\      /  F ield         | OpenFOAM: The Open Source CFD Toolbox
   \\    /   O peration     | Website:  https://openfoam.org
    \\  /    A nd           | Version:  7
     \\/     M anipulation  |
\*---------------------------------------------------------------------------*/
FoamFile
{
    version     2.0;
    format      ascii;
    class       volScalarField;
    location    "18";
    object      rhog;
}
// * * * * * * * * * * * * * * * * * * * * * * * * * * * * * * * * * * * * * //

dimensions      [1 -3 0 0 0 0 0];

internalField   nonuniform List<scalar> 
900
(
2.53967e-06
2.53848e-06
2.53597e-06
2.53188e-06
2.52576e-06
2.51696e-06
2.50452e-06
2.48705e-06
2.46256e-06
2.42819e-06
2.37978e-06
2.31123e-06
2.21349e-06
2.07305e-06
1.86955e-06
1.57333e-06
1.14804e-06
5.91924e-07
1.06696e-07
2.72846e-10
1.47721e-07
1.47494e-07
1.47017e-07
1.46242e-07
1.4509e-07
1.43447e-07
1.41149e-07
1.37973e-07
1.33616e-07
1.27682e-07
1.19668e-07
1.0898e-07
9.5007e-08
7.73424e-08
5.62871e-08
3.37552e-08
1.41541e-08
2.89638e-09
1.23149e-10
1.37016e-13
9.62737e-09
9.60128e-09
9.54662e-09
9.45818e-09
9.32775e-09
9.14347e-09
8.8893e-09
8.54442e-09
8.08321e-09
7.47637e-09
6.69485e-09
5.71876e-09
4.55442e-09
3.2608e-09
1.97696e-09
9.16818e-10
2.7208e-10
3.76001e-11
1.40551e-12
7.7522e-15
7.31759e-10
7.28924e-10
7.23e-10
7.13468e-10
6.99519e-10
6.80025e-10
6.53532e-10
6.18286e-10
5.72371e-10
5.14026e-10
4.42286e-10
3.5804e-10
2.65438e-10
1.73061e-10
9.32918e-11
3.78317e-11
1.00021e-11
1.40557e-12
8.34164e-14
2.29107e-15
6.71655e-11
6.68358e-11
6.61489e-11
6.50497e-11
6.34537e-11
6.12475e-11
5.8292e-11
5.44333e-11
4.95271e-11
4.34842e-11
3.63435e-11
2.83679e-11
2.0129e-11
1.24994e-11
6.44039e-12
2.56042e-12
7.1555e-13
1.27273e-13
1.38963e-14
1.2494e-15
7.65298e-12
7.60931e-12
7.51862e-12
7.37422e-12
7.1661e-12
6.88125e-12
6.50453e-12
6.02062e-12
5.41766e-12
4.69318e-12
3.86221e-12
2.9658e-12
2.07487e-12
1.28151e-12
6.71326e-13
2.84352e-13
9.27418e-14
2.26592e-14
4.38873e-15
8.88873e-16
1.10346e-12
1.09664e-12
1.0825e-12
1.06009e-12
1.02799e-12
9.84427e-13
9.27413e-13
8.551e-13
7.66339e-13
6.61499e-13
5.43477e-13
4.18543e-13
2.96386e-13
1.8854e-13
1.04922e-13
4.9759e-14
1.97754e-14
6.67402e-15
2.07852e-15
7.2284e-16
2.035e-13
2.02216e-13
1.99562e-13
1.95371e-13
1.89399e-13
1.81346e-13
1.70887e-13
1.57738e-13
1.41752e-13
1.23049e-13
1.02169e-13
8.01776e-14
5.86382e-14
3.93558e-14
2.38824e-14
1.29718e-14
6.32433e-15
2.85089e-15
1.27695e-15
6.33438e-16
4.81549e-14
4.78622e-14
4.72585e-14
4.63077e-14
4.4958e-14
4.31462e-14
4.08051e-14
3.7877e-14
3.43333e-14
3.02e-14
2.55855e-14
2.0699e-14
1.58443e-14
1.13754e-14
7.61271e-15
4.74867e-15
2.793e-15
1.59473e-15
9.27575e-16
5.80579e-16
1.4583e-14
1.45025e-14
1.43366e-14
1.4076e-14
1.37069e-14
1.32128e-14
1.25762e-14
1.17816e-14
1.08207e-14
9.69796e-15
8.43716e-15
7.08578e-15
5.71435e-15
4.40791e-15
3.24932e-15
2.29911e-15
1.5806e-15
1.07837e-15
7.50623e-16
5.47415e-16
5.60668e-15
5.58026e-15
5.52588e-15
5.44053e-15
5.31987e-15
5.15861e-15
4.95103e-15
4.69195e-15
4.37804e-15
4.00952e-15
3.59192e-15
3.13745e-15
2.66519e-15
2.19936e-15
1.76551e-15
1.3854e-15
1.07251e-15
8.29881e-16
6.51478e-16
5.25782e-16
2.69341e-15
2.68325e-15
2.66233e-15
2.62954e-15
2.58323e-15
2.52138e-15
2.44177e-15
2.34228e-15
2.22136e-15
2.07854e-15
1.91506e-15
1.73436e-15
1.54228e-15
1.34673e-15
1.15672e-15
9.80931e-16
8.26162e-16
6.96277e-16
5.91958e-16
5.11296e-16
1.57334e-15
1.56885e-15
1.55961e-15
1.54514e-15
1.52472e-15
1.49746e-15
1.46235e-15
1.41841e-15
1.36482e-15
1.30115e-15
1.22757e-15
1.14511e-15
1.05571e-15
9.62255e-16
8.68286e-16
7.77549e-16
6.93462e-16
6.18614e-16
5.54485e-16
5.01427e-16
1.07687e-15
1.07464e-15
1.07007e-15
1.0629e-15
1.05279e-15
1.0393e-15
1.02192e-15
1.00014e-15
9.73501e-16
9.41692e-16
9.04647e-16
8.62651e-16
8.16407e-16
7.67053e-16
7.16101e-16
6.65291e-16
6.16379e-16
5.70924e-16
5.30104e-16
4.94626e-16
8.29999e-16
8.28786e-16
8.26296e-16
8.22399e-16
8.16906e-16
8.0958e-16
8.00144e-16
7.88311e-16
7.7381e-16
7.56432e-16
7.36077e-16
7.12806e-16
6.8688e-16
6.58783e-16
6.29209e-16
5.99014e-16
5.69136e-16
5.40491e-16
5.13878e-16
4.89907e-16
6.95703e-16
6.94992e-16
6.93535e-16
6.91255e-16
6.88046e-16
6.8377e-16
6.78267e-16
6.71366e-16
6.62902e-16
6.52739e-16
6.40791e-16
6.27053e-16
6.11623e-16
5.94721e-16
5.76685e-16
5.57961e-16
5.39068e-16
5.20547e-16
5.02917e-16
4.86619e-16
6.17487e-16
6.17047e-16
6.16145e-16
6.14737e-16
6.12757e-16
6.10121e-16
6.06735e-16
6.02492e-16
5.97289e-16
5.91038e-16
5.83675e-16
5.75181e-16
5.65592e-16
5.55013e-16
5.43621e-16
5.31658e-16
5.19422e-16
5.07239e-16
4.95439e-16
4.84325e-16
5.69573e-16
5.69289e-16
5.68708e-16
5.67802e-16
5.6653e-16
5.64841e-16
5.62674e-16
5.59963e-16
5.56643e-16
5.52656e-16
5.47959e-16
5.42531e-16
5.36388e-16
5.29582e-16
5.22209e-16
5.14409e-16
5.06357e-16
4.98254e-16
4.90309e-16
4.82725e-16
5.3913e-16
5.38942e-16
5.38557e-16
5.37957e-16
5.37117e-16
5.36004e-16
5.34579e-16
5.328e-16
5.30626e-16
5.28018e-16
5.24949e-16
5.21402e-16
5.17384e-16
5.12922e-16
5.08074e-16
5.0292e-16
4.97569e-16
4.92144e-16
4.8678e-16
4.81612e-16
5.19286e-16
5.19159e-16
5.18899e-16
5.18494e-16
5.17929e-16
5.17182e-16
5.16228e-16
5.1504e-16
5.13591e-16
5.11858e-16
5.0982e-16
5.07469e-16
5.04805e-16
5.01846e-16
4.98626e-16
4.95194e-16
4.91617e-16
4.87975e-16
4.84353e-16
4.8084e-16
5.06126e-16
5.06039e-16
5.05861e-16
5.05585e-16
5.05201e-16
5.04693e-16
5.04047e-16
5.03246e-16
5.0227e-16
5.01106e-16
4.99741e-16
4.98169e-16
4.96389e-16
4.94414e-16
4.92263e-16
4.89969e-16
4.87573e-16
4.85127e-16
4.82685e-16
4.80305e-16
4.97303e-16
4.97243e-16
4.97121e-16
4.96932e-16
4.96669e-16
4.96322e-16
4.95883e-16
4.95338e-16
4.94678e-16
4.93893e-16
4.92974e-16
4.91918e-16
4.90725e-16
4.89403e-16
4.87964e-16
4.86429e-16
4.84824e-16
4.83184e-16
4.81542e-16
4.79938e-16
4.91352e-16
4.91311e-16
4.91227e-16
4.91097e-16
4.90917e-16
4.9068e-16
4.9038e-16
4.9001e-16
4.89563e-16
4.89032e-16
4.88413e-16
4.87703e-16
4.86903e-16
4.86018e-16
4.85056e-16
4.8403e-16
4.82958e-16
4.81861e-16
4.80762e-16
4.79686e-16
4.8733e-16
4.87301e-16
4.87244e-16
4.87154e-16
4.87031e-16
4.86869e-16
4.86665e-16
4.86414e-16
4.86111e-16
4.85753e-16
4.85337e-16
4.8486e-16
4.84325e-16
4.83734e-16
4.83092e-16
4.82409e-16
4.81695e-16
4.80965e-16
4.80233e-16
4.79515e-16
4.84611e-16
4.84592e-16
4.84552e-16
4.84492e-16
4.84407e-16
4.84297e-16
4.84159e-16
4.83989e-16
4.83785e-16
4.83544e-16
4.83265e-16
4.82946e-16
4.82589e-16
4.82196e-16
4.8177e-16
4.81317e-16
4.80844e-16
4.8036e-16
4.79875e-16
4.79399e-16
4.82779e-16
4.82766e-16
4.82739e-16
4.82698e-16
4.82641e-16
4.82566e-16
4.82473e-16
4.82358e-16
4.82221e-16
4.8206e-16
4.81874e-16
4.81662e-16
4.81425e-16
4.81165e-16
4.80883e-16
4.80584e-16
4.80273e-16
4.79954e-16
4.79635e-16
4.79321e-16
4.81549e-16
4.8154e-16
4.81522e-16
4.81494e-16
4.81456e-16
4.81406e-16
4.81343e-16
4.81267e-16
4.81175e-16
4.81068e-16
4.80945e-16
4.80805e-16
4.80649e-16
4.80477e-16
4.80292e-16
4.80096e-16
4.79892e-16
4.79683e-16
4.79474e-16
4.79269e-16
4.80728e-16
4.80722e-16
4.8071e-16
4.80691e-16
4.80666e-16
4.80632e-16
4.80591e-16
4.8054e-16
4.80479e-16
4.80409e-16
4.80327e-16
4.80235e-16
4.80133e-16
4.80021e-16
4.799e-16
4.79772e-16
4.79639e-16
4.79504e-16
4.79368e-16
4.79235e-16
4.80183e-16
4.80179e-16
4.80171e-16
4.80159e-16
4.80142e-16
4.8012e-16
4.80092e-16
4.80059e-16
4.80019e-16
4.79973e-16
4.7992e-16
4.7986e-16
4.79793e-16
4.7972e-16
4.79642e-16
4.79559e-16
4.79473e-16
4.79386e-16
4.79298e-16
4.79212e-16
4.79824e-16
4.79822e-16
4.79816e-16
4.79808e-16
4.79797e-16
4.79782e-16
4.79764e-16
4.79743e-16
4.79717e-16
4.79687e-16
4.79652e-16
4.79613e-16
4.7957e-16
4.79523e-16
4.79473e-16
4.7942e-16
4.79365e-16
4.79309e-16
4.79252e-16
4.79197e-16
4.79589e-16
4.79588e-16
4.79584e-16
4.79579e-16
4.79572e-16
4.79562e-16
4.7955e-16
4.79536e-16
4.79519e-16
4.795e-16
4.79478e-16
4.79453e-16
4.79425e-16
4.79395e-16
4.79363e-16
4.79329e-16
4.79294e-16
4.79258e-16
4.79223e-16
4.79188e-16
4.79437e-16
4.79436e-16
4.79433e-16
4.7943e-16
4.79425e-16
4.79419e-16
4.79412e-16
4.79403e-16
4.79392e-16
4.79379e-16
4.79365e-16
4.79349e-16
4.79332e-16
4.79313e-16
4.79292e-16
4.79271e-16
4.79249e-16
4.79226e-16
4.79204e-16
4.79182e-16
4.79339e-16
4.79338e-16
4.79336e-16
4.79334e-16
4.79331e-16
4.79327e-16
4.79322e-16
4.79317e-16
4.7931e-16
4.79302e-16
4.79293e-16
4.79283e-16
4.79272e-16
4.7926e-16
4.79247e-16
4.79234e-16
4.7922e-16
4.79206e-16
4.79191e-16
4.79178e-16
4.79276e-16
4.79275e-16
4.79274e-16
4.79273e-16
4.79271e-16
4.79269e-16
4.79266e-16
4.79262e-16
4.79258e-16
4.79253e-16
4.79247e-16
4.79241e-16
4.79234e-16
4.79226e-16
4.79218e-16
4.7921e-16
4.79201e-16
4.79192e-16
4.79184e-16
4.79175e-16
4.79236e-16
4.79236e-16
4.79235e-16
4.79234e-16
4.79233e-16
4.79231e-16
4.7923e-16
4.79227e-16
4.79225e-16
4.79221e-16
4.79218e-16
4.79214e-16
4.7921e-16
4.79205e-16
4.792e-16
4.79195e-16
4.7919e-16
4.79184e-16
4.79179e-16
4.79173e-16
4.79211e-16
4.79211e-16
4.7921e-16
4.7921e-16
4.79209e-16
4.79208e-16
4.79207e-16
4.79206e-16
4.79204e-16
4.79202e-16
4.792e-16
4.79197e-16
4.79195e-16
4.79192e-16
4.79189e-16
4.79186e-16
4.79182e-16
4.79179e-16
4.79176e-16
4.79172e-16
4.79195e-16
4.79195e-16
4.79195e-16
4.79195e-16
4.79194e-16
4.79194e-16
4.79193e-16
4.79192e-16
4.79191e-16
4.7919e-16
4.79188e-16
4.79187e-16
4.79185e-16
4.79184e-16
4.79182e-16
4.7918e-16
4.79178e-16
4.79176e-16
4.79174e-16
4.79172e-16
4.79186e-16
4.79186e-16
4.79186e-16
4.79185e-16
4.79185e-16
4.79185e-16
4.79184e-16
4.79184e-16
4.79183e-16
4.79182e-16
4.79182e-16
4.79181e-16
4.7918e-16
4.79179e-16
4.79177e-16
4.79176e-16
4.79175e-16
4.79174e-16
4.79173e-16
4.79171e-16
4.7918e-16
4.7918e-16
4.7918e-16
4.7918e-16
4.79179e-16
4.79179e-16
4.79179e-16
4.79179e-16
4.79178e-16
4.79178e-16
4.79177e-16
4.79177e-16
4.79176e-16
4.79176e-16
4.79175e-16
4.79174e-16
4.79173e-16
4.79173e-16
4.79172e-16
4.79171e-16
4.79176e-16
4.79176e-16
4.79176e-16
4.79176e-16
4.79176e-16
4.79176e-16
4.79176e-16
4.79175e-16
4.79175e-16
4.79175e-16
4.79175e-16
4.79174e-16
4.79174e-16
4.79174e-16
4.79173e-16
4.79173e-16
4.79172e-16
4.79172e-16
4.79172e-16
4.79171e-16
4.79174e-16
4.79174e-16
4.79174e-16
4.79174e-16
4.79174e-16
4.79174e-16
4.79174e-16
4.79174e-16
4.79173e-16
4.79173e-16
4.79173e-16
4.79173e-16
4.79173e-16
4.79173e-16
4.79172e-16
4.79172e-16
4.79172e-16
4.79172e-16
4.79171e-16
4.79171e-16
4.79173e-16
4.79173e-16
4.79173e-16
4.79173e-16
4.79173e-16
4.79173e-16
4.79173e-16
4.79173e-16
4.79172e-16
4.79172e-16
4.79172e-16
4.79172e-16
4.79172e-16
4.79172e-16
4.79172e-16
4.79172e-16
4.79171e-16
4.79171e-16
4.79171e-16
4.79171e-16
4.79172e-16
4.79172e-16
4.79172e-16
4.79172e-16
4.79172e-16
4.79172e-16
4.79172e-16
4.79172e-16
4.79172e-16
4.79172e-16
4.79172e-16
4.79172e-16
4.79172e-16
4.79171e-16
4.79171e-16
4.79171e-16
4.79171e-16
4.79171e-16
4.79171e-16
4.79171e-16
4.79172e-16
4.79172e-16
4.79172e-16
4.79172e-16
4.79172e-16
4.79172e-16
4.79172e-16
4.79172e-16
4.79172e-16
4.79171e-16
4.79171e-16
4.79171e-16
4.79171e-16
4.79171e-16
4.79171e-16
4.79171e-16
4.79171e-16
4.79171e-16
4.79171e-16
4.79171e-16
4.79171e-16
4.79171e-16
4.79171e-16
4.79171e-16
4.79171e-16
4.79171e-16
4.79171e-16
4.79171e-16
4.79171e-16
4.79171e-16
4.79171e-16
4.79171e-16
4.79171e-16
4.79171e-16
4.79171e-16
4.79171e-16
4.79171e-16
4.79171e-16
4.79171e-16
4.79171e-16
)
;

boundaryField
{
    topWall
    {
        type            calculated;
        value           uniform 0;
    }
    bottomWall
    {
        type            zeroGradient;
    }
    sideWallL
    {
        type            symmetry;
    }
    sideWallR
    {
        type            calculated;
        value           uniform 0;
    }
    frontAndBack
    {
        type            empty;
    }
}


// ************************************************************************* //
