/*--------------------------------*- C++ -*----------------------------------*\
  =========                 |
  \\      /  F ield         | OpenFOAM: The Open Source CFD Toolbox
   \\    /   O peration     | Website:  https://openfoam.org
    \\  /    A nd           | Version:  7
     \\/     M anipulation  |
\*---------------------------------------------------------------------------*/
FoamFile
{
    version     2.0;
    format      ascii;
    class       volScalarField;
    location    "18";
    object      rhois;
}
// * * * * * * * * * * * * * * * * * * * * * * * * * * * * * * * * * * * * * //

dimensions      [1 -3 0 0 0 0 0];

internalField   nonuniform List<scalar> 
900
(
9.34249e-05
9.33942e-05
9.33295e-05
9.32237e-05
9.30652e-05
9.28366e-05
9.2512e-05
9.20544e-05
9.14097e-05
9.04994e-05
8.92077e-05
8.73612e-05
8.46956e-05
8.07974e-05
7.5003e-05
6.62247e-05
5.27365e-05
3.26574e-05
9.45429e-06
1.27971e-07
1.16286e-05
1.16161e-05
1.15897e-05
1.15468e-05
1.14828e-05
1.1391e-05
1.12619e-05
1.10819e-05
1.08324e-05
1.04879e-05
1.00142e-05
9.36652e-06
8.48985e-06
7.32477e-06
5.82906e-06
4.03435e-06
2.15725e-06
6.88208e-07
7.12228e-08
5.72581e-10
1.5807e-06
1.57771e-06
1.57142e-06
1.56121e-06
1.54606e-06
1.52452e-06
1.49452e-06
1.45332e-06
1.39731e-06
1.32201e-06
1.22214e-06
1.09226e-06
9.28334e-07
7.30947e-07
5.1075e-07
2.94438e-07
1.23277e-07
2.99272e-08
2.89371e-09
7.80428e-11
2.41711e-07
2.41058e-07
2.3969e-07
2.37479e-07
2.3422e-07
2.29625e-07
2.23302e-07
2.14752e-07
2.03367e-07
1.88472e-07
1.6942e-07
1.45808e-07
1.17846e-07
8.68949e-08
5.59388e-08
2.94001e-08
1.14084e-08
2.84098e-09
3.93152e-10
3.39223e-11
4.26671e-08
4.25217e-08
4.22179e-08
4.1729e-08
4.10135e-08
4.00132e-08
3.8653e-08
3.68415e-08
3.44765e-08
3.1459e-08
2.77206e-08
2.32698e-08
1.82559e-08
1.30299e-08
8.14963e-09
4.24642e-09
1.7304e-09
5.18024e-10
1.13261e-10
2.24138e-11
8.87689e-09
8.84197e-09
8.76921e-09
8.65262e-09
8.48304e-09
8.24798e-09
7.93178e-09
7.51637e-09
6.98313e-09
6.31671e-09
5.51139e-09
4.58026e-09
3.56528e-09
2.5431e-09
1.61715e-09
8.87909e-10
4.08325e-10
1.55543e-10
5.16179e-11
1.77324e-11
2.20973e-09
2.20041e-09
2.18102e-09
2.15008e-09
2.10532e-09
2.04374e-09
1.96167e-09
1.85504e-09
1.71997e-09
1.55373e-09
1.35621e-09
1.13185e-09
8.91323e-10
6.5197e-10
4.35326e-10
2.61103e-10
1.39586e-10
6.74726e-11
3.12092e-11
1.5361e-11
6.64427e-10
6.61611e-10
6.55768e-10
6.46475e-10
6.33097e-10
6.14801e-10
5.90594e-10
5.59409e-10
5.20273e-10
4.72575e-10
4.16439e-10
3.53163e-10
2.85564e-10
2.17987e-10
1.55681e-10
1.03495e-10
6.43115e-11
3.81331e-11
2.2509e-11
1.4004e-11
2.42333e-10
2.41366e-10
2.39362e-10
2.36184e-10
2.31627e-10
2.25424e-10
2.17261e-10
2.06806e-10
1.93762e-10
1.77947e-10
1.59397e-10
1.3849e-10
1.1603e-10
9.32455e-11
7.16344e-11
5.2648e-11
3.73061e-11
2.59295e-11
1.81476e-11
1.31682e-11
1.0702e-10
1.06643e-10
1.05862e-10
1.04628e-10
1.02863e-10
1.00469e-10
9.73301e-11
9.33254e-11
8.83445e-11
8.23154e-11
7.52393e-11
6.72268e-11
5.85272e-11
4.95304e-11
4.07277e-11
3.26267e-11
2.56411e-11
1.99992e-11
1.57146e-11
1.26288e-11
5.66519e-11
5.64863e-11
5.61442e-11
5.5604e-11
5.48334e-11
5.3791e-11
5.24281e-11
5.06929e-11
4.85376e-11
4.59279e-11
4.28557e-11
3.93532e-11
3.5503e-11
3.14422e-11
2.73516e-11
2.34311e-11
1.98645e-11
1.67852e-11
1.42558e-11
1.22697e-11
3.52264e-11
3.51456e-11
3.49789e-11
3.4716e-11
3.43417e-11
3.38365e-11
3.31773e-11
3.23392e-11
3.12986e-11
3.00371e-11
2.85466e-11
2.68351e-11
2.49316e-11
2.28883e-11
2.07783e-11
1.86882e-11
1.67053e-11
1.49045e-11
1.33369e-11
1.20258e-11
2.50086e-11
2.49654e-11
2.48764e-11
2.47363e-11
2.45372e-11
2.4269e-11
2.39196e-11
2.34759e-11
2.29251e-11
2.22566e-11
2.14642e-11
2.05486e-11
1.95202e-11
1.84004e-11
1.72212e-11
1.60229e-11
1.48495e-11
1.3743e-11
1.27381e-11
1.18579e-11
1.96544e-11
1.96296e-11
1.95784e-11
1.94979e-11
1.93838e-11
1.92303e-11
1.90307e-11
1.87776e-11
1.84636e-11
1.80823e-11
1.76292e-11
1.71032e-11
1.65082e-11
1.58532e-11
1.51532e-11
1.44284e-11
1.3702e-11
1.2998e-11
1.23386e-11
1.17413e-11
1.66303e-11
1.66152e-11
1.65839e-11
1.65349e-11
1.64654e-11
1.63722e-11
1.62513e-11
1.60982e-11
1.59086e-11
1.56782e-11
1.54043e-11
1.50854e-11
1.47227e-11
1.43206e-11
1.38864e-11
1.34307e-11
1.29663e-11
1.25074e-11
1.20678e-11
1.16599e-11
1.48204e-11
1.48107e-11
1.47908e-11
1.47595e-11
1.47153e-11
1.46561e-11
1.45795e-11
1.44827e-11
1.4363e-11
1.42178e-11
1.40451e-11
1.38438e-11
1.36143e-11
1.33586e-11
1.30805e-11
1.27861e-11
1.24825e-11
1.21784e-11
1.18825e-11
1.16029e-11
1.36889e-11
1.36825e-11
1.36693e-11
1.36487e-11
1.36196e-11
1.35807e-11
1.35305e-11
1.34674e-11
1.33894e-11
1.32949e-11
1.31828e-11
1.3052e-11
1.29028e-11
1.27361e-11
1.25542e-11
1.23603e-11
1.21589e-11
1.19553e-11
1.17548e-11
1.15631e-11
1.29586e-11
1.29542e-11
1.29453e-11
1.29314e-11
1.29118e-11
1.28857e-11
1.28521e-11
1.28098e-11
1.27579e-11
1.26952e-11
1.26208e-11
1.25342e-11
1.24354e-11
1.23249e-11
1.2204e-11
1.20748e-11
1.194e-11
1.18027e-11
1.16666e-11
1.15352e-11
1.24764e-11
1.24735e-11
1.24673e-11
1.24578e-11
1.24443e-11
1.24265e-11
1.24037e-11
1.2375e-11
1.23399e-11
1.22977e-11
1.22476e-11
1.21895e-11
1.21233e-11
1.20493e-11
1.19684e-11
1.18816e-11
1.17909e-11
1.16981e-11
1.16056e-11
1.15158e-11
1.21532e-11
1.21511e-11
1.21469e-11
1.21403e-11
1.2131e-11
1.21187e-11
1.2103e-11
1.20835e-11
1.20595e-11
1.20308e-11
1.19969e-11
1.19576e-11
1.1913e-11
1.18631e-11
1.18086e-11
1.17502e-11
1.1689e-11
1.16262e-11
1.15635e-11
1.15023e-11
1.19344e-11
1.1933e-11
1.193e-11
1.19254e-11
1.1919e-11
1.19105e-11
1.18997e-11
1.18862e-11
1.18698e-11
1.18502e-11
1.18272e-11
1.18006e-11
1.17704e-11
1.17367e-11
1.16999e-11
1.16605e-11
1.16193e-11
1.15769e-11
1.15345e-11
1.1493e-11
1.17855e-11
1.17845e-11
1.17825e-11
1.17793e-11
1.17748e-11
1.17689e-11
1.17615e-11
1.17522e-11
1.1741e-11
1.17276e-11
1.17119e-11
1.16939e-11
1.16734e-11
1.16507e-11
1.16259e-11
1.15994e-11
1.15717e-11
1.15432e-11
1.15146e-11
1.14866e-11
1.1684e-11
1.16833e-11
1.16819e-11
1.16797e-11
1.16766e-11
1.16725e-11
1.16674e-11
1.16611e-11
1.16534e-11
1.16443e-11
1.16336e-11
1.16214e-11
1.16076e-11
1.15923e-11
1.15756e-11
1.15579e-11
1.15392e-11
1.15201e-11
1.1501e-11
1.14822e-11
1.16149e-11
1.16144e-11
1.16134e-11
1.16119e-11
1.16097e-11
1.16069e-11
1.16034e-11
1.15991e-11
1.15939e-11
1.15877e-11
1.15805e-11
1.15722e-11
1.1563e-11
1.15527e-11
1.15415e-11
1.15297e-11
1.15172e-11
1.15045e-11
1.14917e-11
1.14792e-11
1.15679e-11
1.15675e-11
1.15669e-11
1.15658e-11
1.15643e-11
1.15624e-11
1.156e-11
1.15571e-11
1.15536e-11
1.15494e-11
1.15445e-11
1.1539e-11
1.15328e-11
1.1526e-11
1.15185e-11
1.15106e-11
1.15024e-11
1.14939e-11
1.14855e-11
1.14771e-11
1.15361e-11
1.15359e-11
1.15354e-11
1.15347e-11
1.15337e-11
1.15324e-11
1.15308e-11
1.15288e-11
1.15264e-11
1.15236e-11
1.15203e-11
1.15167e-11
1.15125e-11
1.1508e-11
1.15031e-11
1.14979e-11
1.14924e-11
1.14868e-11
1.14813e-11
1.14758e-11
1.15147e-11
1.15145e-11
1.15142e-11
1.15137e-11
1.1513e-11
1.15122e-11
1.15111e-11
1.15098e-11
1.15082e-11
1.15063e-11
1.15041e-11
1.15017e-11
1.1499e-11
1.1496e-11
1.14927e-11
1.14893e-11
1.14857e-11
1.14821e-11
1.14784e-11
1.14749e-11
1.15004e-11
1.15003e-11
1.15e-11
1.14997e-11
1.14993e-11
1.14987e-11
1.1498e-11
1.14971e-11
1.1496e-11
1.14948e-11
1.14934e-11
1.14918e-11
1.149e-11
1.1488e-11
1.14859e-11
1.14837e-11
1.14813e-11
1.1479e-11
1.14766e-11
1.14743e-11
1.14908e-11
1.14908e-11
1.14906e-11
1.14904e-11
1.14901e-11
1.14897e-11
1.14892e-11
1.14887e-11
1.1488e-11
1.14872e-11
1.14862e-11
1.14852e-11
1.1484e-11
1.14827e-11
1.14814e-11
1.14799e-11
1.14784e-11
1.14769e-11
1.14754e-11
1.14739e-11
1.14846e-11
1.14845e-11
1.14844e-11
1.14843e-11
1.14841e-11
1.14838e-11
1.14835e-11
1.14831e-11
1.14827e-11
1.14822e-11
1.14816e-11
1.14809e-11
1.14801e-11
1.14793e-11
1.14784e-11
1.14775e-11
1.14765e-11
1.14755e-11
1.14746e-11
1.14736e-11
1.14805e-11
1.14804e-11
1.14804e-11
1.14803e-11
1.14801e-11
1.148e-11
1.14798e-11
1.14795e-11
1.14792e-11
1.14789e-11
1.14785e-11
1.14781e-11
1.14776e-11
1.14771e-11
1.14765e-11
1.14759e-11
1.14753e-11
1.14747e-11
1.1474e-11
1.14734e-11
1.14778e-11
1.14778e-11
1.14777e-11
1.14777e-11
1.14776e-11
1.14775e-11
1.14773e-11
1.14772e-11
1.1477e-11
1.14768e-11
1.14765e-11
1.14763e-11
1.14759e-11
1.14756e-11
1.14753e-11
1.14749e-11
1.14745e-11
1.14741e-11
1.14737e-11
1.14733e-11
1.14761e-11
1.14761e-11
1.1476e-11
1.1476e-11
1.14759e-11
1.14759e-11
1.14758e-11
1.14757e-11
1.14756e-11
1.14754e-11
1.14753e-11
1.14751e-11
1.14749e-11
1.14747e-11
1.14745e-11
1.14742e-11
1.1474e-11
1.14737e-11
1.14735e-11
1.14732e-11
1.1475e-11
1.1475e-11
1.14749e-11
1.14749e-11
1.14749e-11
1.14748e-11
1.14748e-11
1.14747e-11
1.14746e-11
1.14746e-11
1.14745e-11
1.14744e-11
1.14742e-11
1.14741e-11
1.1474e-11
1.14738e-11
1.14737e-11
1.14735e-11
1.14734e-11
1.14732e-11
1.14743e-11
1.14743e-11
1.14743e-11
1.14742e-11
1.14742e-11
1.14742e-11
1.14742e-11
1.14741e-11
1.14741e-11
1.1474e-11
1.1474e-11
1.14739e-11
1.14738e-11
1.14737e-11
1.14736e-11
1.14736e-11
1.14735e-11
1.14734e-11
1.14733e-11
1.14732e-11
1.14738e-11
1.14738e-11
1.14738e-11
1.14738e-11
1.14738e-11
1.14738e-11
1.14738e-11
1.14737e-11
1.14737e-11
1.14737e-11
1.14736e-11
1.14736e-11
1.14735e-11
1.14735e-11
1.14734e-11
1.14734e-11
1.14733e-11
1.14733e-11
1.14732e-11
1.14732e-11
1.14736e-11
1.14736e-11
1.14736e-11
1.14735e-11
1.14735e-11
1.14735e-11
1.14735e-11
1.14735e-11
1.14735e-11
1.14735e-11
1.14734e-11
1.14734e-11
1.14734e-11
1.14734e-11
1.14733e-11
1.14733e-11
1.14733e-11
1.14732e-11
1.14732e-11
1.14731e-11
1.14734e-11
1.14734e-11
1.14734e-11
1.14734e-11
1.14734e-11
1.14734e-11
1.14734e-11
1.14734e-11
1.14733e-11
1.14733e-11
1.14733e-11
1.14733e-11
1.14733e-11
1.14733e-11
1.14732e-11
1.14732e-11
1.14732e-11
1.14732e-11
1.14732e-11
1.14731e-11
1.14733e-11
1.14733e-11
1.14733e-11
1.14733e-11
1.14733e-11
1.14733e-11
1.14733e-11
1.14733e-11
1.14733e-11
1.14733e-11
1.14732e-11
1.14732e-11
1.14732e-11
1.14732e-11
1.14732e-11
1.14732e-11
1.14732e-11
1.14732e-11
1.14731e-11
1.14731e-11
1.14732e-11
1.14732e-11
1.14732e-11
1.14732e-11
1.14732e-11
1.14732e-11
1.14732e-11
1.14732e-11
1.14732e-11
1.14732e-11
1.14732e-11
1.14732e-11
1.14732e-11
1.14732e-11
1.14732e-11
1.14732e-11
1.14732e-11
1.14731e-11
1.14731e-11
1.14731e-11
1.14732e-11
1.14732e-11
1.14732e-11
1.14732e-11
1.14732e-11
1.14732e-11
1.14732e-11
1.14732e-11
1.14732e-11
1.14732e-11
1.14732e-11
1.14732e-11
1.14732e-11
1.14732e-11
1.14732e-11
1.14732e-11
1.14731e-11
1.14731e-11
1.14731e-11
1.14731e-11
1.14732e-11
1.14732e-11
1.14732e-11
1.14732e-11
1.14732e-11
1.14732e-11
1.14732e-11
1.14732e-11
1.14732e-11
1.14732e-11
1.14732e-11
1.14732e-11
1.14731e-11
1.14731e-11
1.14731e-11
1.14731e-11
1.14731e-11
1.14731e-11
1.14731e-11
1.14731e-11
1.14732e-11
1.14732e-11
1.14732e-11
1.14732e-11
1.14731e-11
1.14731e-11
1.14731e-11
1.14731e-11
1.14731e-11
1.14731e-11
1.14731e-11
1.14731e-11
1.14731e-11
1.14731e-11
1.14731e-11
1.14731e-11
1.14731e-11
1.14731e-11
1.14731e-11
1.14731e-11
1.14731e-11
1.14731e-11
1.14731e-11
1.14731e-11
1.14731e-11
1.14731e-11
1.14731e-11
1.14731e-11
1.14731e-11
1.14731e-11
1.14731e-11
1.14731e-11
1.14731e-11
1.14731e-11
1.14731e-11
1.14731e-11
1.14731e-11
1.14731e-11
1.14731e-11
1.14731e-11
1.14731e-11
1.14731e-11
1.14731e-11
1.14731e-11
1.14731e-11
1.14731e-11
1.14731e-11
1.14731e-11
1.14731e-11
1.14731e-11
1.14731e-11
1.14731e-11
1.14731e-11
1.14731e-11
1.14731e-11
1.14731e-11
1.14731e-11
1.14731e-11
1.14731e-11
1.14731e-11
)
;

boundaryField
{
    topWall
    {
        type            zeroGradient;
    }
    bottomWall
    {
        type            zeroGradient;
    }
    sideWallL
    {
        type            symmetry;
    }
    sideWallR
    {
        type            zeroGradient;
    }
    frontAndBack
    {
        type            empty;
    }
}


// ************************************************************************* //
