/*--------------------------------*- C++ -*----------------------------------*\
  =========                 |
  \\      /  F ield         | OpenFOAM: The Open Source CFD Toolbox
   \\    /   O peration     | Website:  https://openfoam.org
    \\  /    A nd           | Version:  7
     \\/     M anipulation  |
\*---------------------------------------------------------------------------*/
FoamFile
{
    version     2.0;
    format      ascii;
    class       volScalarField;
    location    "18";
    object      rhot1;
}
// * * * * * * * * * * * * * * * * * * * * * * * * * * * * * * * * * * * * * //

dimensions      [1 -3 0 0 0 0 0];

internalField   nonuniform List<scalar> 
900
(
2.35312e-05
2.35205e-05
2.34981e-05
2.34614e-05
2.34067e-05
2.33279e-05
2.32165e-05
2.30599e-05
2.28404e-05
2.25321e-05
2.20975e-05
2.14814e-05
2.06019e-05
1.93355e-05
1.74954e-05
1.48047e-05
1.09116e-05
5.74537e-06
1.09342e-06
3.38469e-09
1.49337e-06
1.49116e-06
1.4865e-06
1.47893e-06
1.46768e-06
1.45162e-06
1.42915e-06
1.39805e-06
1.35535e-06
1.29711e-06
1.21829e-06
1.11289e-06
9.74541e-07
7.98648e-07
5.87214e-07
3.57984e-07
1.5435e-07
3.32344e-08
1.56476e-09
2.18434e-12
1.05879e-07
1.05602e-07
1.05021e-07
1.04082e-07
1.02695e-07
1.00735e-07
9.80284e-08
9.43509e-08
8.94241e-08
8.29258e-08
7.45293e-08
6.39944e-08
5.13466e-08
3.71652e-08
2.29023e-08
1.08892e-08
3.36159e-09
4.95547e-10
2.06558e-11
1.36818e-13
8.71853e-09
8.68593e-09
8.61779e-09
8.50809e-09
8.34743e-09
8.12269e-09
7.81684e-09
7.4092e-09
6.87686e-09
6.19819e-09
5.35999e-09
4.3696e-09
3.2717e-09
2.16339e-09
1.19019e-09
4.97207e-10
1.37363e-10
2.06115e-11
1.34801e-12
4.23131e-14
8.62469e-10
8.58383e-10
8.49871e-10
8.36239e-10
8.1643e-10
7.89013e-10
7.52223e-10
7.04083e-10
6.42692e-10
5.66775e-10
4.76585e-10
3.75114e-10
2.69252e-10
1.69886e-10
8.95005e-11
3.67016e-11
1.07097e-11
2.02205e-12
2.39181e-13
2.36078e-14
1.0528e-10
1.04701e-10
1.03498e-10
1.0158e-10
9.88134e-11
9.50215e-11
8.99972e-11
8.35268e-11
7.54376e-11
6.56746e-11
5.44101e-11
4.21618e-11
2.98593e-11
1.87488e-11
1.00421e-11
4.38179e-12
1.48652e-12
3.82234e-13
7.8836e-14
1.70096e-14
1.61574e-11
1.60611e-11
1.58615e-11
1.5545e-11
1.50911e-11
1.44742e-11
1.36652e-11
1.26363e-11
1.13688e-11
9.86478e-12
8.16117e-12
6.3432e-12
4.54681e-12
2.93897e-12
1.67001e-12
8.13619e-13
3.34582e-13
1.1774e-13
3.84322e-14
1.39368e-14
3.15046e-12
3.13133e-12
3.09178e-12
3.02926e-12
2.94009e-12
2.81965e-12
2.6629e-12
2.4653e-12
2.22418e-12
1.94078e-12
1.62248e-12
1.28461e-12
9.50381e-13
6.47352e-13
4.00266e-13
2.22545e-13
1.11617e-13
5.1977e-14
2.40694e-14
1.22704e-14
7.831e-13
7.78529e-13
7.69095e-13
7.54227e-13
7.33097e-13
7.04689e-13
6.67905e-13
6.21775e-13
5.65752e-13
5.00119e-13
4.26432e-13
3.47838e-13
2.69051e-13
1.95707e-13
1.33098e-13
8.46422e-14
5.09009e-14
2.97616e-14
1.77051e-14
1.12805e-14
2.47572e-13
2.46263e-13
2.43565e-13
2.39321e-13
2.33306e-13
2.25242e-13
2.1483e-13
2.01804e-13
1.85999e-13
1.67458e-13
1.46531e-13
1.23959e-13
1.00871e-13
7.86681e-14
5.87517e-14
4.21966e-14
2.94847e-14
2.04479e-14
1.44449e-14
1.06573e-14
9.87629e-14
9.83186e-14
9.74037e-14
9.59666e-14
9.39332e-14
9.12117e-14
8.77023e-14
8.33124e-14
7.79783e-14
7.16939e-14
6.45411e-14
5.67148e-14
4.8529e-14
4.03914e-14
3.27428e-14
2.59712e-14
2.03312e-14
1.59025e-14
1.26037e-14
1.02499e-14
4.89129e-14
4.87371e-14
4.83755e-14
4.78081e-14
4.7006e-14
4.59334e-14
4.45506e-14
4.28193e-14
4.07098e-14
3.82108e-14
3.53397e-14
3.21522e-14
2.8746e-14
2.52568e-14
2.18423e-14
1.86579e-14
1.58297e-14
1.34342e-14
1.14921e-14
9.97661e-15
2.92547e-14
2.91754e-14
2.90121e-14
2.87562e-14
2.83947e-14
2.79115e-14
2.72886e-14
2.65076e-14
2.55531e-14
2.44163e-14
2.30987e-14
2.16167e-14
2.00035e-14
1.83091e-14
1.6596e-14
1.4932e-14
1.338e-14
1.19892e-14
1.07894e-14
9.7902e-15
2.03673e-14
2.03273e-14
2.0245e-14
2.0116e-14
1.99339e-14
1.96908e-14
1.93772e-14
1.89837e-14
1.85016e-14
1.79248e-14
1.72514e-14
1.6486e-14
1.56405e-14
1.47349e-14
1.37962e-14
1.28559e-14
1.19465e-14
1.10973e-14
1.03309e-14
9.66163e-15
1.58809e-14
1.58588e-14
1.58134e-14
1.57424e-14
1.56421e-14
1.55084e-14
1.53359e-14
1.51194e-14
1.48538e-14
1.45349e-14
1.41608e-14
1.37322e-14
1.32535e-14
1.27334e-14
1.21843e-14
1.16218e-14
1.10634e-14
1.05261e-14
1.00251e-14
9.57235e-15
1.34127e-14
1.33996e-14
1.33727e-14
1.33307e-14
1.32716e-14
1.31927e-14
1.30912e-14
1.29637e-14
1.28073e-14
1.26192e-14
1.23977e-14
1.21427e-14
1.18558e-14
1.15408e-14
1.1204e-14
1.08536e-14
1.04991e-14
1.01507e-14
9.81824e-15
9.51012e-15
1.19631e-14
1.19549e-14
1.19382e-14
1.1912e-14
1.18752e-14
1.18263e-14
1.17633e-14
1.16844e-14
1.15876e-14
1.14711e-14
1.13338e-14
1.11752e-14
1.0996e-14
1.07979e-14
1.05843e-14
1.03597e-14
1.01294e-14
9.89979e-15
9.67695e-15
9.4667e-15
1.10696e-14
1.10643e-14
1.10534e-14
1.10365e-14
1.10128e-14
1.09812e-14
1.09407e-14
1.089e-14
1.08279e-14
1.07533e-14
1.06653e-14
1.05636e-14
1.04483e-14
1.03204e-14
1.01818e-14
1.00349e-14
9.8831e-15
9.73012e-15
9.57994e-15
9.4364e-15
1.04993e-14
1.04958e-14
1.04886e-14
1.04774e-14
1.04616e-14
1.04407e-14
1.0414e-14
1.03806e-14
1.03398e-14
1.02908e-14
1.02331e-14
1.01664e-14
1.00908e-14
1.00068e-14
9.91541e-15
9.8182e-15
9.71716e-15
9.61463e-15
9.51317e-15
9.41532e-15
1.01264e-14
1.0124e-14
1.01191e-14
1.01115e-14
1.01009e-14
1.00868e-14
1.00689e-14
1.00465e-14
1.00193e-14
9.98663e-15
9.94825e-15
9.90393e-15
9.8537e-15
9.79788e-15
9.73708e-15
9.67226e-15
9.60466e-15
9.53577e-15
9.46722e-15
9.40068e-15
9.87852e-15
9.87688e-15
9.87353e-15
9.86833e-15
9.86108e-15
9.85152e-15
9.83934e-15
9.82422e-15
9.80583e-15
9.78387e-15
9.75811e-15
9.72842e-15
9.69482e-15
9.65751e-15
9.61686e-15
9.57348e-15
9.52817e-15
9.48187e-15
9.43563e-15
9.39056e-15
9.71203e-15
9.7109e-15
9.7086e-15
9.70503e-15
9.70006e-15
9.69352e-15
9.68522e-15
9.67494e-15
9.66247e-15
9.64763e-15
9.63028e-15
9.61032e-15
9.58777e-15
9.56276e-15
9.53554e-15
9.5065e-15
9.47614e-15
9.44508e-15
9.41399e-15
9.3836e-15
9.59961e-15
9.59883e-15
9.59724e-15
9.59478e-15
9.59137e-15
9.5869e-15
9.58123e-15
9.57423e-15
9.56578e-15
9.55574e-15
9.54403e-15
9.53061e-15
9.51548e-15
9.49873e-15
9.48052e-15
9.4611e-15
9.44081e-15
9.42003e-15
9.39922e-15
9.37883e-15
9.52353e-15
9.523e-15
9.52191e-15
9.52022e-15
9.51788e-15
9.51482e-15
9.51096e-15
9.50621e-15
9.50048e-15
9.49371e-15
9.48583e-15
9.47681e-15
9.46668e-15
9.45549e-15
9.44334e-15
9.4304e-15
9.41689e-15
9.40305e-15
9.38919e-15
9.37559e-15
9.4721e-15
9.47173e-15
9.47098e-15
9.46983e-15
9.46823e-15
9.46615e-15
9.46353e-15
9.46032e-15
9.45645e-15
9.45189e-15
9.44661e-15
9.44058e-15
9.43382e-15
9.42637e-15
9.4183e-15
9.40972e-15
9.40076e-15
9.39159e-15
9.38241e-15
9.37339e-15
9.43741e-15
9.43716e-15
9.43665e-15
9.43587e-15
9.43479e-15
9.43338e-15
9.43161e-15
9.42944e-15
9.42685e-15
9.4238e-15
9.42027e-15
9.41626e-15
9.41178e-15
9.40684e-15
9.40151e-15
9.39584e-15
9.38994e-15
9.3839e-15
9.37785e-15
9.37192e-15
9.41412e-15
9.41395e-15
9.41361e-15
9.41308e-15
9.41235e-15
9.41141e-15
9.41022e-15
9.40877e-15
9.40704e-15
9.40501e-15
9.40267e-15
9.40002e-15
9.39706e-15
9.39381e-15
9.39031e-15
9.38659e-15
9.38272e-15
9.37877e-15
9.37482e-15
9.37093e-15
9.39857e-15
9.39846e-15
9.39823e-15
9.39787e-15
9.39738e-15
9.39675e-15
9.39596e-15
9.395e-15
9.39386e-15
9.39252e-15
9.39098e-15
9.38923e-15
9.38729e-15
9.38517e-15
9.38288e-15
9.38046e-15
9.37794e-15
9.37537e-15
9.3728e-15
9.37028e-15
9.38825e-15
9.38817e-15
9.38802e-15
9.38778e-15
9.38746e-15
9.38704e-15
9.38652e-15
9.38589e-15
9.38513e-15
9.38426e-15
9.38325e-15
9.38211e-15
9.38085e-15
9.37947e-15
9.37799e-15
9.37642e-15
9.37479e-15
9.37313e-15
9.37147e-15
9.36985e-15
9.38145e-15
9.3814e-15
9.38129e-15
9.38114e-15
9.38093e-15
9.38065e-15
9.38031e-15
9.3799e-15
9.37941e-15
9.37883e-15
9.37818e-15
9.37745e-15
9.37663e-15
9.37574e-15
9.37479e-15
9.37378e-15
9.37274e-15
9.37167e-15
9.37061e-15
9.36956e-15
9.37699e-15
9.37696e-15
9.37689e-15
9.37679e-15
9.37666e-15
9.37648e-15
9.37625e-15
9.37599e-15
9.37567e-15
9.3753e-15
9.37488e-15
9.37441e-15
9.37388e-15
9.37332e-15
9.37271e-15
9.37206e-15
9.3714e-15
9.37072e-15
9.37005e-15
9.36938e-15
9.3741e-15
9.37408e-15
9.37404e-15
9.37397e-15
9.37388e-15
9.37377e-15
9.37363e-15
9.37345e-15
9.37325e-15
9.37301e-15
9.37275e-15
9.37244e-15
9.37211e-15
9.37175e-15
9.37136e-15
9.37096e-15
9.37054e-15
9.37011e-15
9.36968e-15
9.36926e-15
9.37224e-15
9.37223e-15
9.3722e-15
9.37216e-15
9.3721e-15
9.37203e-15
9.37194e-15
9.37183e-15
9.3717e-15
9.37155e-15
9.37138e-15
9.37119e-15
9.37098e-15
9.37075e-15
9.37051e-15
9.37025e-15
9.36999e-15
9.36972e-15
9.36945e-15
9.36919e-15
9.37105e-15
9.37104e-15
9.37102e-15
9.371e-15
9.37096e-15
9.37091e-15
9.37086e-15
9.37079e-15
9.37071e-15
9.37061e-15
9.37051e-15
9.37039e-15
9.37025e-15
9.37011e-15
9.36996e-15
9.3698e-15
9.36964e-15
9.36947e-15
9.3693e-15
9.36914e-15
9.3703e-15
9.37029e-15
9.37028e-15
9.37026e-15
9.37024e-15
9.37021e-15
9.37017e-15
9.37013e-15
9.37008e-15
9.37002e-15
9.36996e-15
9.36988e-15
9.3698e-15
9.36971e-15
9.36962e-15
9.36952e-15
9.36942e-15
9.36931e-15
9.36921e-15
9.36911e-15
9.36982e-15
9.36982e-15
9.36981e-15
9.3698e-15
9.36979e-15
9.36977e-15
9.36975e-15
9.36972e-15
9.36969e-15
9.36965e-15
9.36961e-15
9.36956e-15
9.36951e-15
9.36946e-15
9.3694e-15
9.36934e-15
9.36928e-15
9.36922e-15
9.36915e-15
9.36909e-15
9.36953e-15
9.36952e-15
9.36952e-15
9.36951e-15
9.36951e-15
9.36949e-15
9.36948e-15
9.36946e-15
9.36944e-15
9.36942e-15
9.3694e-15
9.36937e-15
9.36934e-15
9.3693e-15
9.36927e-15
9.36923e-15
9.3692e-15
9.36916e-15
9.36912e-15
9.36908e-15
9.36934e-15
9.36934e-15
9.36934e-15
9.36934e-15
9.36933e-15
9.36932e-15
9.36932e-15
9.36931e-15
9.36929e-15
9.36928e-15
9.36926e-15
9.36925e-15
9.36923e-15
9.36921e-15
9.36919e-15
9.36917e-15
9.36914e-15
9.36912e-15
9.3691e-15
9.36907e-15
9.36923e-15
9.36923e-15
9.36923e-15
9.36923e-15
9.36922e-15
9.36922e-15
9.36921e-15
9.36921e-15
9.3692e-15
9.36919e-15
9.36918e-15
9.36917e-15
9.36916e-15
9.36915e-15
9.36914e-15
9.36912e-15
9.36911e-15
9.3691e-15
9.36908e-15
9.36907e-15
9.36916e-15
9.36916e-15
9.36916e-15
9.36916e-15
9.36916e-15
9.36916e-15
9.36915e-15
9.36915e-15
9.36915e-15
9.36914e-15
9.36914e-15
9.36913e-15
9.36912e-15
9.36912e-15
9.36911e-15
9.3691e-15
9.36909e-15
9.36908e-15
9.36908e-15
9.36907e-15
9.36912e-15
9.36912e-15
9.36912e-15
9.36912e-15
9.36912e-15
9.36912e-15
9.36912e-15
9.36911e-15
9.36911e-15
9.36911e-15
9.36911e-15
9.3691e-15
9.3691e-15
9.36909e-15
9.36909e-15
9.36908e-15
9.36908e-15
9.36908e-15
9.36907e-15
9.36907e-15
9.3691e-15
9.3691e-15
9.3691e-15
9.3691e-15
9.3691e-15
9.3691e-15
9.3691e-15
9.36909e-15
9.36909e-15
9.36909e-15
9.36909e-15
9.36909e-15
9.36908e-15
9.36908e-15
9.36908e-15
9.36908e-15
9.36907e-15
9.36907e-15
9.36907e-15
9.36906e-15
9.36908e-15
9.36908e-15
9.36908e-15
9.36908e-15
9.36908e-15
9.36908e-15
9.36908e-15
9.36908e-15
9.36908e-15
9.36908e-15
9.36908e-15
9.36908e-15
9.36908e-15
9.36907e-15
9.36907e-15
9.36907e-15
9.36907e-15
9.36907e-15
9.36907e-15
9.36906e-15
9.36908e-15
9.36908e-15
9.36908e-15
9.36908e-15
9.36908e-15
9.36908e-15
9.36908e-15
9.36908e-15
9.36907e-15
9.36907e-15
9.36907e-15
9.36907e-15
9.36907e-15
9.36907e-15
9.36907e-15
9.36907e-15
9.36907e-15
9.36907e-15
9.36907e-15
9.36906e-15
9.36907e-15
9.36907e-15
9.36907e-15
9.36907e-15
9.36907e-15
9.36907e-15
9.36907e-15
9.36907e-15
9.36907e-15
9.36907e-15
9.36907e-15
9.36907e-15
9.36907e-15
9.36907e-15
9.36907e-15
9.36907e-15
9.36907e-15
9.36907e-15
9.36906e-15
9.36906e-15
)
;

boundaryField
{
    topWall
    {
        type            zeroGradient;
    }
    bottomWall
    {
        type            zeroGradient;
    }
    sideWallL
    {
        type            symmetry;
    }
    sideWallR
    {
        type            calculated;
        value           uniform 0;
    }
    frontAndBack
    {
        type            empty;
    }
}


// ************************************************************************* //
