/*--------------------------------*- C++ -*----------------------------------*\
  =========                 |
  \\      /  F ield         | OpenFOAM: The Open Source CFD Toolbox
   \\    /   O peration     | Website:  https://openfoam.org
    \\  /    A nd           | Version:  7
     \\/     M anipulation  |
\*---------------------------------------------------------------------------*/
FoamFile
{
    version     2.0;
    format      ascii;
    class       volScalarField;
    location    "18";
    object      rhot2;
}
// * * * * * * * * * * * * * * * * * * * * * * * * * * * * * * * * * * * * * //

dimensions      [1 -3 0 0 0 0 0];

internalField   nonuniform List<scalar> 
900
(
2.07111e-11
2.06929e-11
2.06545e-11
2.05918e-11
2.04984e-11
2.03643e-11
2.01753e-11
1.99112e-11
1.95435e-11
1.90327e-11
1.83237e-11
1.73411e-11
1.59837e-11
1.41237e-11
1.16209e-11
8.38999e-12
4.62635e-12
1.32348e-12
5.19848e-14
6.62661e-19
9.49622e-14
9.46882e-14
9.41137e-14
9.31831e-14
9.18084e-14
8.98625e-14
8.71733e-14
8.35173e-14
7.862e-14
7.2171e-14
6.38713e-14
5.35424e-14
4.13335e-14
2.80379e-14
1.53917e-14
5.86264e-15
1.13625e-15
5.6843e-17
1.46757e-19
4.01618e-25
5.41081e-16
5.3833e-16
5.32586e-16
5.23354e-16
5.0987e-16
4.91094e-16
4.6573e-16
4.3231e-16
3.89427e-16
3.36197e-16
2.73057e-16
2.02891e-16
1.32087e-16
7.03401e-17
2.73696e-17
6.42273e-18
6.49305e-19
1.55413e-20
3.17831e-23
1.8369e-27
4.13342e-18
4.10341e-18
4.04102e-18
3.94154e-18
3.798e-18
3.60152e-18
3.34224e-18
3.01128e-18
2.60431e-18
2.12716e-18
1.60277e-18
1.07648e-18
6.12518e-19
2.73545e-19
8.53549e-20
1.55741e-20
1.26958e-21
3.15328e-23
1.55983e-25
1.8862e-28
4.52231e-20
4.48075e-20
4.39474e-20
4.25868e-20
4.06463e-20
3.80328e-20
3.4658e-20
3.04718e-20
2.55133e-20
1.99743e-20
1.42525e-20
8.94082e-21
4.68675e-21
1.91102e-21
5.48352e-22
9.65928e-23
8.77462e-24
3.4201e-25
5.39639e-27
6.09764e-29
7.46715e-22
7.38749e-22
7.22333e-22
6.96543e-22
6.60132e-22
6.11763e-22
5.50419e-22
4.76054e-22
3.90461e-22
2.98154e-22
2.0672e-22
1.25826e-22
6.42783e-23
2.59775e-23
7.70446e-24
1.53363e-24
1.87215e-25
1.33623e-26
6.25504e-28
3.23649e-29
1.93002e-23
1.90774e-23
1.86197e-23
1.79046e-23
1.69029e-23
1.5586e-23
1.39374e-23
1.19699e-23
9.74616e-24
7.39573e-24
5.11492e-24
3.13293e-24
1.63933e-24
7.01528e-25
2.33697e-25
5.77489e-26
1.02778e-26
1.35576e-27
1.55559e-28
2.20311e-29
7.97147e-25
7.8778e-25
7.68586e-25
7.38713e-25
6.97088e-25
6.42717e-25
5.75158e-25
4.95169e-25
4.0544e-25
3.11119e-25
2.19671e-25
1.39555e-25
7.77098e-26
3.68598e-26
1.44923e-26
4.63969e-27
1.21824e-27
2.77897e-28
6.29922e-29
1.72325e-29
5.29712e-26
5.23738e-26
5.11512e-26
4.92523e-26
4.66133e-26
4.31755e-26
3.89132e-26
3.38708e-26
2.8203e-26
2.22037e-26
1.62988e-26
1.0979e-26
6.67226e-27
3.60037e-27
1.7062e-27
7.1069e-28
2.66119e-28
9.4604e-29
3.48489e-29
1.46523e-29
5.6403e-27
5.5828e-27
5.46517e-27
5.28258e-27
5.02887e-27
4.69816e-27
4.28722e-27
3.7986e-27
3.24416e-27
2.64772e-27
2.04511e-27
1.47979e-27
9.93465e-28
6.14537e-28
3.49813e-28
1.84819e-28
9.27127e-29
4.58941e-29
2.35534e-29
1.31322e-29
9.47971e-28
9.39775e-28
9.23003e-28
8.9695e-28
8.60693e-28
8.13286e-28
7.54057e-28
6.82997e-28
6.01213e-28
5.11318e-28
4.17565e-28
3.25512e-28
2.41108e-28
1.69366e-28
1.13122e-28
7.24944e-29
4.53235e-29
2.82991e-29
1.81199e-29
1.2182e-29
2.4356e-28
2.41885e-28
2.38456e-28
2.33121e-28
2.25678e-28
2.15904e-28
2.03607e-28
1.88696e-28
1.71262e-28
1.51659e-28
1.30552e-28
1.08902e-28
8.78586e-29
6.856e-29
5.19077e-29
3.83877e-29
2.80235e-29
2.04673e-29
1.51728e-29
1.15641e-29
9.05148e-29
9.00469e-29
8.90879e-29
8.75939e-29
8.55039e-29
8.27473e-29
7.92559e-29
7.49793e-29
6.99059e-29
6.40836e-29
5.76379e-29
5.07776e-29
4.37825e-29
3.69692e-29
3.06411e-29
2.50373e-29
2.02968e-29
1.64505e-29
1.34399e-29
1.11516e-29
4.51958e-29
4.5027e-29
4.46809e-29
4.41411e-29
4.33842e-29
4.23826e-29
4.11071e-29
3.9532e-29
3.76417e-29
3.54371e-29
3.2943e-29
3.02122e-29
2.73255e-29
2.43857e-29
2.15056e-29
1.87923e-29
1.63325e-29
1.4182e-29
1.23637e-29
1.08713e-29
2.80838e-29
2.80097e-29
2.78577e-29
2.76204e-29
2.72874e-29
2.68457e-29
2.62812e-29
2.55802e-29
2.4732e-29
2.37314e-29
2.25817e-29
2.12973e-29
1.99044e-29
1.84407e-29
1.69522e-29
1.54883e-29
1.40958e-29
1.28139e-29
1.167e-29
1.06788e-29
2.0341e-29
2.03034e-29
2.02263e-29
2.01058e-29
1.99368e-29
1.97124e-29
1.9425e-29
1.9067e-29
1.86316e-29
1.81141e-29
1.75135e-29
1.68333e-29
1.60829e-29
1.52773e-29
1.4437e-29
1.35859e-29
1.27494e-29
1.19511e-29
1.12116e-29
1.05456e-29
1.63513e-29
1.63301e-29
1.62867e-29
1.6219e-29
1.61239e-29
1.59978e-29
1.58362e-29
1.56347e-29
1.53889e-29
1.50956e-29
1.47531e-29
1.43618e-29
1.39253e-29
1.34502e-29
1.29462e-29
1.24255e-29
1.19021e-29
1.13903e-29
1.09036e-29
1.04532e-29
1.40986e-29
1.40857e-29
1.40595e-29
1.40186e-29
1.39612e-29
1.38852e-29
1.37878e-29
1.36664e-29
1.35182e-29
1.33411e-29
1.31336e-29
1.28954e-29
1.26279e-29
1.23341e-29
1.20191e-29
1.16894e-29
1.1353e-29
1.10185e-29
1.06945e-29
1.0389e-29
1.27433e-29
1.27351e-29
1.27184e-29
1.26925e-29
1.26562e-29
1.2608e-29
1.25466e-29
1.247e-29
1.23766e-29
1.22649e-29
1.21339e-29
1.19832e-29
1.18134e-29
1.16259e-29
1.14236e-29
1.121e-29
1.099e-29
1.07687e-29
1.05518e-29
1.03444e-29
1.18917e-29
1.18864e-29
1.18754e-29
1.18584e-29
1.18346e-29
1.18032e-29
1.17631e-29
1.17133e-29
1.16527e-29
1.15802e-29
1.14953e-29
1.13976e-29
1.12872e-29
1.11652e-29
1.10329e-29
1.08926e-29
1.07471e-29
1.05998e-29
1.04541e-29
1.03135e-29
1.13408e-29
1.13372e-29
1.13299e-29
1.13185e-29
1.13026e-29
1.12817e-29
1.12551e-29
1.1222e-29
1.11819e-29
1.11341e-29
1.10781e-29
1.10137e-29
1.0941e-29
1.08605e-29
1.07731e-29
1.06802e-29
1.05835e-29
1.0485e-29
1.03872e-29
1.02922e-29
1.09777e-29
1.09753e-29
1.09703e-29
1.09626e-29
1.09518e-29
1.09377e-29
1.09198e-29
1.08977e-29
1.08708e-29
1.08389e-29
1.08016e-29
1.07588e-29
1.07105e-29
1.06571e-29
1.0599e-29
1.05373e-29
1.04728e-29
1.04071e-29
1.03415e-29
1.02775e-29
1.07356e-29
1.07339e-29
1.07305e-29
1.07253e-29
1.0718e-29
1.07084e-29
1.06963e-29
1.06814e-29
1.06633e-29
1.06419e-29
1.0617e-29
1.05884e-29
1.05562e-29
1.05206e-29
1.0482e-29
1.04409e-29
1.0398e-29
1.03542e-29
1.03104e-29
1.02675e-29
1.05732e-29
1.0572e-29
1.05697e-29
1.05661e-29
1.05612e-29
1.05547e-29
1.05465e-29
1.05364e-29
1.05242e-29
1.05099e-29
1.04932e-29
1.04741e-29
1.04527e-29
1.0429e-29
1.04033e-29
1.0376e-29
1.03475e-29
1.03184e-29
1.02893e-29
1.02607e-29
1.0464e-29
1.04632e-29
1.04617e-29
1.04592e-29
1.04558e-29
1.04514e-29
1.04459e-29
1.04391e-29
1.0431e-29
1.04213e-29
1.04102e-29
1.03975e-29
1.03832e-29
1.03675e-29
1.03505e-29
1.03324e-29
1.03136e-29
1.02943e-29
1.0275e-29
1.02561e-29
1.03907e-29
1.03902e-29
1.03891e-29
1.03875e-29
1.03852e-29
1.03822e-29
1.03785e-29
1.03739e-29
1.03685e-29
1.0362e-29
1.03546e-29
1.03462e-29
1.03367e-29
1.03263e-29
1.03151e-29
1.03032e-29
1.02908e-29
1.02781e-29
1.02654e-29
1.0253e-29
1.03416e-29
1.03413e-29
1.03405e-29
1.03394e-29
1.03379e-29
1.03359e-29
1.03334e-29
1.03304e-29
1.03267e-29
1.03225e-29
1.03176e-29
1.0312e-29
1.03058e-29
1.02989e-29
1.02916e-29
1.02838e-29
1.02757e-29
1.02674e-29
1.02591e-29
1.02509e-29
1.03089e-29
1.03087e-29
1.03082e-29
1.03074e-29
1.03064e-29
1.03051e-29
1.03034e-29
1.03014e-29
1.0299e-29
1.02962e-29
1.0293e-29
1.02893e-29
1.02852e-29
1.02808e-29
1.0276e-29
1.02709e-29
1.02656e-29
1.02602e-29
1.02548e-29
1.02495e-29
1.02872e-29
1.02871e-29
1.02867e-29
1.02863e-29
1.02856e-29
1.02847e-29
1.02836e-29
1.02823e-29
1.02807e-29
1.02789e-29
1.02767e-29
1.02744e-29
1.02717e-29
1.02688e-29
1.02657e-29
1.02624e-29
1.0259e-29
1.02555e-29
1.02521e-29
1.02486e-29
1.0273e-29
1.02728e-29
1.02726e-29
1.02723e-29
1.02719e-29
1.02713e-29
1.02706e-29
1.02697e-29
1.02687e-29
1.02675e-29
1.02661e-29
1.02646e-29
1.02629e-29
1.0261e-29
1.0259e-29
1.02569e-29
1.02547e-29
1.02525e-29
1.02502e-29
1.02481e-29
1.02636e-29
1.02635e-29
1.02634e-29
1.02632e-29
1.02629e-29
1.02625e-29
1.02621e-29
1.02615e-29
1.02608e-29
1.02601e-29
1.02592e-29
1.02582e-29
1.02571e-29
1.02559e-29
1.02546e-29
1.02533e-29
1.02519e-29
1.02505e-29
1.02491e-29
1.02477e-29
1.02576e-29
1.02575e-29
1.02574e-29
1.02573e-29
1.02571e-29
1.02569e-29
1.02566e-29
1.02562e-29
1.02558e-29
1.02553e-29
1.02547e-29
1.02541e-29
1.02534e-29
1.02526e-29
1.02518e-29
1.0251e-29
1.02501e-29
1.02492e-29
1.02483e-29
1.02474e-29
1.02537e-29
1.02536e-29
1.02536e-29
1.02535e-29
1.02534e-29
1.02532e-29
1.0253e-29
1.02528e-29
1.02525e-29
1.02522e-29
1.02518e-29
1.02514e-29
1.0251e-29
1.02505e-29
1.025e-29
1.02495e-29
1.02489e-29
1.02484e-29
1.02478e-29
1.02473e-29
1.02512e-29
1.02511e-29
1.02511e-29
1.02511e-29
1.0251e-29
1.02509e-29
1.02508e-29
1.02506e-29
1.02504e-29
1.02502e-29
1.025e-29
1.02498e-29
1.02495e-29
1.02492e-29
1.02489e-29
1.02485e-29
1.02482e-29
1.02479e-29
1.02475e-29
1.02472e-29
1.02496e-29
1.02496e-29
1.02495e-29
1.02495e-29
1.02495e-29
1.02494e-29
1.02493e-29
1.02492e-29
1.02491e-29
1.0249e-29
1.02489e-29
1.02487e-29
1.02485e-29
1.02484e-29
1.02482e-29
1.0248e-29
1.02477e-29
1.02475e-29
1.02473e-29
1.02471e-29
1.02486e-29
1.02486e-29
1.02486e-29
1.02485e-29
1.02485e-29
1.02485e-29
1.02484e-29
1.02484e-29
1.02483e-29
1.02482e-29
1.02481e-29
1.02481e-29
1.02479e-29
1.02478e-29
1.02477e-29
1.02476e-29
1.02475e-29
1.02473e-29
1.02472e-29
1.02471e-29
1.0248e-29
1.0248e-29
1.0248e-29
1.02479e-29
1.02479e-29
1.02479e-29
1.02479e-29
1.02478e-29
1.02478e-29
1.02478e-29
1.02477e-29
1.02476e-29
1.02476e-29
1.02475e-29
1.02474e-29
1.02474e-29
1.02473e-29
1.02472e-29
1.02471e-29
1.0247e-29
1.02476e-29
1.02476e-29
1.02476e-29
1.02476e-29
1.02476e-29
1.02475e-29
1.02475e-29
1.02475e-29
1.02475e-29
1.02475e-29
1.02474e-29
1.02474e-29
1.02473e-29
1.02473e-29
1.02473e-29
1.02472e-29
1.02472e-29
1.02471e-29
1.02471e-29
1.0247e-29
1.02474e-29
1.02474e-29
1.02473e-29
1.02473e-29
1.02473e-29
1.02473e-29
1.02473e-29
1.02473e-29
1.02473e-29
1.02473e-29
1.02473e-29
1.02472e-29
1.02472e-29
1.02472e-29
1.02472e-29
1.02471e-29
1.02471e-29
1.02471e-29
1.0247e-29
1.0247e-29
1.02472e-29
1.02472e-29
1.02472e-29
1.02472e-29
1.02472e-29
1.02472e-29
1.02472e-29
1.02472e-29
1.02472e-29
1.02472e-29
1.02472e-29
1.02471e-29
1.02471e-29
1.02471e-29
1.02471e-29
1.02471e-29
1.02471e-29
1.0247e-29
1.0247e-29
1.0247e-29
1.02471e-29
1.02471e-29
1.02471e-29
1.02471e-29
1.02471e-29
1.02471e-29
1.02471e-29
1.02471e-29
1.02471e-29
1.02471e-29
1.02471e-29
1.02471e-29
1.02471e-29
1.02471e-29
1.02471e-29
1.0247e-29
1.0247e-29
1.0247e-29
1.0247e-29
1.0247e-29
1.02471e-29
1.02471e-29
1.02471e-29
1.02471e-29
1.02471e-29
1.02471e-29
1.02471e-29
1.02471e-29
1.02471e-29
1.02471e-29
1.02471e-29
1.02471e-29
1.0247e-29
1.0247e-29
1.0247e-29
1.0247e-29
1.0247e-29
1.0247e-29
1.0247e-29
1.0247e-29
1.0247e-29
1.0247e-29
1.0247e-29
1.0247e-29
1.0247e-29
1.0247e-29
1.0247e-29
1.0247e-29
1.0247e-29
1.0247e-29
1.0247e-29
1.0247e-29
1.0247e-29
1.0247e-29
1.0247e-29
1.0247e-29
1.0247e-29
1.0247e-29
1.0247e-29
1.0247e-29
1.0247e-29
1.0247e-29
1.0247e-29
1.0247e-29
1.0247e-29
1.0247e-29
1.0247e-29
1.0247e-29
1.0247e-29
1.0247e-29
1.0247e-29
1.0247e-29
1.0247e-29
1.0247e-29
1.0247e-29
1.0247e-29
1.0247e-29
1.0247e-29
1.0247e-29
1.0247e-29
1.0247e-29
1.0247e-29
1.0247e-29
1.0247e-29
1.0247e-29
1.0247e-29
1.0247e-29
1.0247e-29
1.0247e-29
1.0247e-29
1.0247e-29
1.0247e-29
1.0247e-29
1.0247e-29
1.0247e-29
1.0247e-29
1.0247e-29
1.0247e-29
1.0247e-29
1.0247e-29
)
;

boundaryField
{
    topWall
    {
        type            zeroGradient;
    }
    bottomWall
    {
        type            zeroGradient;
    }
    sideWallL
    {
        type            symmetry;
    }
    sideWallR
    {
        type            zeroGradient;
    }
    frontAndBack
    {
        type            empty;
    }
}


// ************************************************************************* //
