/*--------------------------------*- C++ -*----------------------------------*\
  =========                 |
  \\      /  F ield         | OpenFOAM: The Open Source CFD Toolbox
   \\    /   O peration     | Website:  https://openfoam.org
    \\  /    A nd           | Version:  7
     \\/     M anipulation  |
\*---------------------------------------------------------------------------*/
FoamFile
{
    version     2.0;
    format      ascii;
    class       volScalarField;
    location    "18";
    object      T;
}
// * * * * * * * * * * * * * * * * * * * * * * * * * * * * * * * * * * * * * //

dimensions      [0 0 0 1 0 0 0];

internalField   nonuniform List<scalar> 
900
(
436.926
436.921
436.909
436.89
436.862
436.822
436.765
436.686
436.574
436.417
436.193
435.872
435.401
434.693
433.587
431.763
428.485
421.773
405.351
356.509
409.394
409.378
409.345
409.291
409.21
409.095
408.932
408.705
408.388
407.943
407.314
406.415
405.113
403.186
400.259
395.655
388.085
374.982
351.223
307.791
385.902
385.877
385.824
385.739
385.613
385.432
385.18
384.828
384.34
383.66
382.708
381.365
379.453
376.694
372.65
366.62
357.471
343.444
322.121
291.485
365.942
365.91
365.842
365.732
365.569
365.338
365.016
364.57
363.956
363.109
361.939
360.316
358.053
354.879
350.401
344.06
335.091
322.557
305.626
284.412
349.066
349.029
348.949
348.822
348.634
348.367
347.999
347.493
346.802
345.861
344.579
342.833
340.453
337.21
332.799
326.837
318.879
308.513
295.592
280.652
334.875
334.834
334.748
334.61
334.407
334.122
333.729
333.196
332.475
331.505
330.204
328.464
326.146
323.073
319.031
313.782
307.096
298.837
289.096
278.368
323.01
322.968
322.879
322.738
322.53
322.241
321.846
321.313
320.6
319.655
318.406
316.765
314.626
311.862
308.332
303.899
298.461
292.007
284.684
276.865
313.153
313.111
313.024
312.884
312.682
312.4
312.018
311.509
310.835
309.952
308.803
307.32
305.424
303.029
300.048
296.408
292.077
287.089
281.584
275.826
305.019
304.979
304.895
304.763
304.571
304.307
303.951
303.481
302.866
302.069
301.048
299.75
298.121
296.104
293.649
290.721
287.319
283.491
279.353
275.085
298.352
298.315
298.238
298.116
297.94
297.7
297.378
296.957
296.412
295.714
294.831
293.725
292.36
290.699
288.715
286.395
283.751
280.831
277.721
274.546
292.929
292.895
292.826
292.717
292.56
292.346
292.064
291.696
291.224
290.628
289.882
288.961
287.84
286.497
284.918
283.102
281.065
278.848
276.513
274.148
288.55
288.521
288.46
288.364
288.227
288.042
287.799
287.485
287.087
286.587
285.97
285.217
284.312
283.243
282.003
280.596
279.039
277.363
275.614
273.853
285.042
285.017
284.964
284.882
284.766
284.609
284.404
284.141
283.811
283.401
282.899
282.294
281.574
280.734
279.771
278.691
277.509
276.248
274.942
273.633
282.254
282.233
282.189
282.12
282.022
281.892
281.722
281.506
281.237
280.906
280.505
280.025
279.46
278.808
278.068
277.246
276.354
275.41
274.439
273.469
280.056
280.039
280.002
279.945
279.865
279.758
279.62
279.446
279.231
278.967
278.65
278.275
277.838
277.337
276.773
276.153
275.485
274.782
274.062
273.346
278.338
278.324
278.294
278.248
278.183
278.097
277.987
277.849
277.678
277.471
277.225
276.935
276.6
276.219
275.794
275.329
274.832
274.311
273.781
273.254
277.006
276.995
276.971
276.934
276.883
276.814
276.727
276.619
276.486
276.326
276.137
275.915
275.661
275.374
275.056
274.711
274.343
273.96
273.571
273.186
275.982
275.973
275.955
275.926
275.885
275.832
275.764
275.68
275.578
275.456
275.312
275.145
274.954
274.74
274.504
274.249
273.979
273.699
273.416
273.135
275.202
275.195
275.18
275.158
275.127
275.086
275.034
274.97
274.892
274.8
274.691
274.566
274.425
274.266
274.093
273.907
273.71
273.506
273.301
273.098
274.613
274.607
274.596
274.579
274.555
274.524
274.485
274.436
274.378
274.309
274.228
274.136
274.031
273.916
273.789
273.653
273.511
273.364
273.216
273.07
274.171
274.167
274.159
274.146
274.128
274.104
274.075
274.039
273.996
273.944
273.885
273.817
273.741
273.657
273.566
273.468
273.366
273.26
273.154
273.05
273.844
273.841
273.834
273.824
273.811
273.794
273.772
273.745
273.714
273.676
273.633
273.584
273.529
273.468
273.403
273.333
273.26
273.185
273.11
273.036
273.603
273.6
273.596
273.588
273.579
273.566
273.55
273.53
273.507
273.48
273.449
273.414
273.374
273.331
273.284
273.235
273.183
273.13
273.077
273.025
273.427
273.425
273.422
273.416
273.409
273.4
273.388
273.374
273.358
273.338
273.316
273.291
273.263
273.232
273.199
273.165
273.128
273.091
273.054
273.018
273.3
273.298
273.296
273.292
273.287
273.28
273.272
273.262
273.25
273.237
273.221
273.203
273.183
273.162
273.139
273.114
273.089
273.063
273.038
273.012
273.209
273.208
273.206
273.203
273.2
273.195
273.189
273.182
273.174
273.164
273.153
273.141
273.127
273.112
273.096
273.079
273.061
273.044
273.026
273.008
273.144
273.143
273.142
273.14
273.138
273.134
273.13
273.125
273.119
273.113
273.105
273.096
273.087
273.077
273.066
273.054
273.042
273.03
273.018
273.006
273.099
273.098
273.097
273.096
273.094
273.092
273.089
273.086
273.082
273.077
273.072
273.066
273.059
273.052
273.045
273.037
273.029
273.02
273.012
273.004
273.067
273.067
273.066
273.065
273.064
273.062
273.06
273.058
273.055
273.052
273.048
273.044
273.04
273.035
273.03
273.025
273.019
273.014
273.008
273.003
273.045
273.045
273.044
273.044
273.043
273.042
273.04
273.039
273.037
273.035
273.032
273.03
273.027
273.024
273.02
273.017
273.013
273.009
273.005
273.002
273.03
273.03
273.03
273.029
273.029
273.028
273.027
273.026
273.025
273.023
273.022
273.02
273.018
273.016
273.013
273.011
273.009
273.006
273.004
273.001
273.02
273.02
273.02
273.019
273.019
273.018
273.018
273.017
273.016
273.015
273.014
273.013
273.012
273.01
273.009
273.007
273.006
273.004
273.002
273.001
273.013
273.013
273.013
273.013
273.012
273.012
273.012
273.011
273.011
273.01
273.009
273.008
273.008
273.007
273.006
273.005
273.004
273.003
273.002
273
273.008
273.008
273.008
273.008
273.008
273.008
273.008
273.007
273.007
273.006
273.006
273.006
273.005
273.004
273.004
273.003
273.002
273.002
273.001
273
273.005
273.005
273.005
273.005
273.005
273.005
273.005
273.005
273.004
273.004
273.004
273.004
273.003
273.003
273.002
273.002
273.002
273.001
273.001
273
273.003
273.003
273.003
273.003
273.003
273.003
273.003
273.003
273.003
273.003
273.002
273.002
273.002
273.002
273.002
273.001
273.001
273.001
273
273
273.002
273.002
273.002
273.002
273.002
273.002
273.002
273.002
273.002
273.002
273.002
273.001
273.001
273.001
273.001
273.001
273.001
273
273
273
273.001
273.001
273.001
273.001
273.001
273.001
273.001
273.001
273.001
273.001
273.001
273.001
273.001
273.001
273.001
273
273
273
273
273
273.001
273.001
273.001
273.001
273.001
273.001
273.001
273.001
273.001
273.001
273.001
273.001
273
273
273
273
273
273
273
273
273.001
273.001
273.001
273.001
273.001
273
273
273
273
273
273
273
273
273
273
273
273
273
273
273
273
273
273
273
273
273
273
273
273
273
273
273
273
273
273
273
273
273
273
273
273
273
273
273
273
273
273
273
273
273
273
273
273
273
273
273
273
273
273
273
273
273
273
273
273
273
273
273
273
273
273
273
273
273
273
273
273
273
273
273
273
273
273
273
273
273
273
273
273
273
273
273
273
273
273
273
273
273
273
273
273
273
273
273
273
273
273
273
273
273
273
273
273
273
273
273
273
273
273
273
)
;

boundaryField
{
    topWall
    {
        type            zeroGradient;
    }
    bottomWall
    {
        type            codedFixedValue;
        value           uniform 453;
        name            heating;
        code            #{
            const scalar t = this->db().time().value();
            const scalar Ttemp = 273 + 10*t;
            operator==(Ttemp);
        #};
    }
    sideWallL
    {
        type            symmetry;
    }
    sideWallR
    {
        type            fixedValue;
        value           uniform 273;
    }
    frontAndBack
    {
        type            empty;
    }
}


// ************************************************************************* //
