/*--------------------------------*- C++ -*----------------------------------*\
  =========                 |
  \\      /  F ield         | OpenFOAM: The Open Source CFD Toolbox
   \\    /   O peration     | Website:  https://openfoam.org
    \\  /    A nd           | Version:  7
     \\/     M anipulation  |
\*---------------------------------------------------------------------------*/
FoamFile
{
    version     2.0;
    format      ascii;
    class       volScalarField;
    location    "31";
    object      gradTy;
}
// * * * * * * * * * * * * * * * * * * * * * * * * * * * * * * * * * * * * * //

dimensions      [0 -1 0 1 0 0 0];

internalField   nonuniform List<scalar> 
900
(
-214985
-215187
-215604
-216262
-217203
-218489
-220211
-222493
-225513
-229524
-234899
-242191
-252263
-266515
-287355
-319234
-371137
-463150
-645214
-1.05255e+06
-184699
-184883
-185263
-185862
-186716
-187880
-189429
-191470
-194148
-197669
-202318
-208505
-216819
-228118
-243628
-264988
-293767
-328520
-351113
-270370
-160730
-160890
-161218
-161733
-162464
-163451
-164752
-166442
-168621
-171421
-175007
-179587
-185398
-192664
-201430
-211116
-219289
-218588
-190202
-96118.1
-141321
-141450
-141715
-142128
-142707
-143480
-144480
-145749
-147337
-149297
-151676
-154497
-157704
-161065
-163954
-164916
-160879
-145942
-110515
-44583.2
-123895
-123991
-124186
-124486
-124900
-125440
-126118
-126946
-127926
-129048
-130269
-131480
-132457
-132756
-131562
-127435
-118021
-99906.9
-69323.4
-25094.8
-108191
-108252
-108376
-108563
-108814
-109126
-109495
-109906
-110330
-110711
-110950
-110873
-110190
-108430
-104851
-98355.2
-87462.4
-70509
-46369.7
-15967.5
-94092.6
-94122
-94179.4
-94261.2
-94360.9
-94467.3
-94561.3
-94611.7
-94568.2
-94351.1
-93836.4
-92834.5
-91061.4
-88105.8
-83397.7
-76204.7
-65701.5
-51193.2
-32570.9
-10951
-81491.7
-81492.5
-81491.1
-81480.9
-81450.5
-81382.1
-81248.4
-81008.9
-80603.4
-79944.6
-78906.8
-77313.3
-74921.5
-71411.4
-66385.6
-59396.9
-50030.6
-38065.3
-23716.2
-7875.32
-70278.1
-70255.1
-70205
-70119.2
-69983.6
-69776.9
-69468.1
-69013.2
-68351
-67397.1
-66038
-64123.8
-61464
-57827.5
-52955.5
-46594.9
-38563.4
-28849.1
-17728.5
-5845.31
-60344.5
-60302.8
-60214.8
-60071.2
-59856.6
-59548.7
-59116.1
-58516.1
-57691.4
-56567.4
-55048.1
-53014.9
-50326.3
-46824.5
-42350.4
-36772.2
-30030
-22192.5
-13510.3
-4434.88
-51586
-51530.8
-51415.8
-51231.5
-50962.8
-50588.2
-50078.1
-49393.8
-48485.1
-47289.3
-45729.8
-43716.6
-41149.7
-37925.8
-33952.9
-29170.6
-23578.9
-17268.3
-10442.8
-3417.92
-43901.3
-43837.4
-43705.2
-43495.8
-43195.3
-42783.8
-42235.2
-41515.8
-40584
-39389
-37872.2
-35968
-33607.8
-30727.6
-27277.5
-23237.5
-18633.6
-13553.8
-8156.65
-2664.18
-37192.2
-37123.8
-36983
-36761.9
-36447.9
-36024
-35467.6
-34751
-33840.3
-32696.3
-31275.2
-29530.8
-27418
-24898.6
-21949.2
-18570.6
-14797.6
-10707.2
-6419.93
-2093.78
-31364.7
-31295.2
-31152.9
-30930.6
-30617.9
-30200.2
-29659.1
-28972.1
-28112.7
-27051.3
-25756.3
-24195.9
-22341.5
-20172.2
-17679.6
-14874.8
-11793
-8497.94
-5080.88
-1655.18
-26328.9
-26261.1
-26122.5
-25907.3
-25606.6
-25208.8
-24698.8
-24059.1
-23269.6
-22308.4
-21153.2
-19782.8
-18180.1
-16334.6
-14246.9
-11931.6
-9420.99
-6766.33
-4036.51
-1313.8
-21999.9
-21935.6
-21804.5
-21602.1
-21321
-20952
-20483.3
-19901.4
-19191.4
-18337.5
-17324.4
-16138.6
-14770.2
-13215.6
-11479.5
-9577.23
-7536.73
-5398.57
-3214.78
-1045.6
-18297.6
-18238.1
-18117.2
-17931.2
-17674.4
-17339.4
-16917.4
-16398.1
-15770.7
-15024.1
-14148.1
-13134.3
-11977.9
-10678.9
-9243.99
-7687.56
-6032.89
-4311.88
-2563.91
-833.422
-15147.7
-15093.8
-14984.6
-14817
-14586.7
-14288.2
-13914.6
-13458.6
-12912.4
-12268.3
-11519.8
-10662.1
-9693.28
-8615.52
-7435.87
-6167.21
-4828.54
-3444.81
-2045.85
-664.7
-12481.7
-12433.7
-12336.7
-12188.2
-11985.1
-11723.2
-11397.4
-11002.5
-10532.9
-9983.65
-9350.67
-8631.5
-7826.09
-6937.48
-5972.5
-4942.16
-3861.82
-2750.91
-1632.08
-530.049
-10236.8
-10194.8
-10109.9
-9980.34
-9803.75
-9577.01
-9296.56
-8958.61
-8559.47
-8095.87
-7565.47
-6967.3
-6302.32
-5573.88
-4788.15
-3954.36
-3084.8
-2194.55
-1300.88
-422.338
-8356.35
-8320.01
-8246.68
-8135.11
-7983.5
-7789.62
-7550.96
-7264.9
-6929
-6541.26
-6100.47
-5606.57
-5061.01
-4467.09
-3830.17
-3157.86
-2459.93
-1748.08
-1035.46
-336.065
-6789.2
-6758.16
-6695.6
-6600.62
-6471.94
-6307.96
-6106.96
-5867.18
-5587.06
-5265.47
-4901.92
-4496.87
-4051.95
-3570.18
-3056.15
-2516.02
-1957.53
-1389.74
-822.677
-266.935
-5489.87
-5463.64
-5410.86
-5330.86
-5222.76
-5085.46
-4917.78
-4718.58
-4486.93
-4222.25
-3924.51
-3594.44
-3233.65
-2844.81
-2431.74
-1999.43
-1553.95
-1102.3
-652.168
-211.56
-4418.11
-4396.18
-4352.08
-4285.37
-4195.43
-4081.51
-3942.84
-3778.73
-3588.65
-3372.38
-3130.17
-2862.81
-2571.84
-2259.53
-1929.03
-1584.33
-1230.19
-872.016
-515.674
-167.248
-3538.6
-3520.44
-3483.94
-3428.82
-3354.64
-3260.92
-3147.19
-3013.03
-2858.2
-2682.7
-2486.9
-2271.61
-2038.18
-1788.55
-1525.26
-1251.5
-970.96
-687.828
-406.583
-131.842
-2820.57
-2805.66
-2775.71
-2730.54
-2669.88
-2593.41
-2500.84
-2391.97
-2266.73
-2125.23
-1967.91
-1795.53
-1609.24
-1410.66
-1201.84
-985.278
-763.87
-540.826
-319.571
-103.61
-2237.39
-2225.24
-2200.87
-2164.16
-2114.93
-2053
-1978.22
-1890.49
-1789.85
-1676.49
-1550.83
-1413.56
-1265.66
-1108.44
-943.55
-772.945
-598.873
-423.8
-250.34
-81.152
-1766.16
-1756.35
-1736.67
-1707.06
-1667.41
-1617.62
-1557.62
-1487.4
-1407.05
-1316.79
-1217
-1108.28
-991.457
-867.579
-737.956
-604.119
-467.806
-330.906
-195.41
-63.3375
-1387.37
-1379.5
-1363.73
-1340.02
-1308.31
-1268.56
-1220.75
-1164.91
-1101.16
-1029.71
-950.914
-865.272
-773.457
-676.317
-574.88
-470.339
-364.03
-257.401
-151.965
-49.2497
-1084.46
-1078.2
-1065.65
-1046.8
-1021.61
-990.09
-952.238
-908.114
-857.837
-801.61
-739.734
-672.627
-600.833
-525.026
-446.011
-364.711
-282.152
-199.438
-117.717
-38.1467
-843.491
-838.535
-828.618
-813.73
-793.864
-769.028
-739.251
-704.598
-665.184
-621.189
-572.868
-520.563
-464.708
-405.836
-344.572
-281.629
-217.792
-153.898
-90.8191
-29.4274
-652.785
-648.893
-641.107
-629.427
-613.858
-594.415
-571.135
-544.085
-513.368
-479.14
-441.61
-401.056
-357.823
-312.326
-265.05
-216.541
-167.398
-118.256
-69.7732
-22.6061
-502.642
-499.606
-493.534
-484.43
-472.305
-457.179
-439.091
-418.101
-394.302
-367.821
-338.832
-307.556
-274.262
-239.276
-202.969
-165.759
-128.1
-90.4728
-53.3717
-17.2907
-385.044
-382.69
-377.985
-370.934
-361.551
-349.857
-335.888
-319.698
-301.364
-280.994
-258.725
-234.732
-209.226
-182.458
-154.712
-126.305
-97.5823
-68.904
-40.6418
-13.1657
-293.402
-291.589
-287.967
-282.541
-275.326
-266.341
-255.619
-243.205
-229.165
-213.585
-196.574
-178.268
-158.832
-138.458
-117.361
-95.7834
-73.9823
-52.2295
-30.8026
-9.97772
-222.337
-220.95
-218.179
-214.032
-208.519
-201.659
-193.481
-184.022
-173.335
-161.488
-148.568
-134.682
-119.953
-104.53
-88.5746
-72.2693
-55.8073
-39.3915
-23.2285
-7.52386
-167.479
-166.426
-164.321
-161.172
-156.989
-151.787
-145.59
-138.429
-130.347
-121.396
-111.645
-101.174
-90.08
-78.4728
-66.476
-54.2252
-41.8647
-29.5454
-17.4206
-5.64235
-125.299
-124.504
-122.918
-120.545
-117.395
-113.48
-108.819
-103.438
-97.3693
-90.655
-83.3467
-75.5064
-67.2066
-58.5302
-49.5695
-40.4253
-31.2047
-22.0191
-12.9817
-4.20443
-92.9524
-92.359
-91.1743
-89.4029
-87.052
-84.1323
-80.6586
-76.6508
-72.1344
-67.1416
-61.7114
-55.8907
-49.7337
-43.3022
-36.6644
-29.8949
-23.0723
-16.2786
-9.59642
-3.10791
-68.159
-67.7212
-66.8474
-65.5413
-63.8085
-61.6575
-59.0999
-56.1509
-52.8299
-49.1612
-45.1739
-40.903
-36.3885
-31.6756
-26.8147
-21.8599
-16.8686
-11.9002
-7.01481
-2.27174
-49.086
-48.7691
-48.1367
-47.1915
-45.9381
-44.3828
-42.5343
-40.4042
-38.0067
-35.3598
-32.485
-29.4075
-26.1564
-22.7644
-19.2676
-15.705
-12.1175
-8.54767
-5.03825
-1.63159
-34.2557
-34.0335
-33.5903
-32.9281
-32.0501
-30.9611
-29.6674
-28.1771
-26.5007
-24.6507
-22.6425
-20.4938
-18.225
-15.8591
-13.4211
-10.9381
-8.43865
-5.95212
-3.50817
-1.13605
-22.4624
-22.3163
-22.0247
-21.5891
-21.0117
-20.2958
-19.4455
-18.4664
-17.3654
-16.151
-14.8331
-13.4237
-11.936
-10.3852
-8.7877
-7.16123
-5.52437
-3.89632
-2.29639
-0.743627
-12.7018
-12.619
-12.4537
-12.2069
-11.8798
-11.4742
-10.9926
-10.4383
-9.81503
-9.12774
-8.38216
-7.58495
-6.74375
-5.86705
-4.96418
-4.04511
-3.12034
-2.20067
-1.29698
-0.419987
-4.1073
-4.08049
-4.02699
-3.94709
-3.84121
-3.70994
-3.5541
-3.37471
-3.17307
-2.95073
-2.70957
-2.45176
-2.17974
-1.89629
-1.60441
-1.30732
-1.00842
-0.711189
-0.419138
-0.135724
)
;

boundaryField
{
    topWall
    {
        type            calculated;
        value           uniform 0;
    }
    bottomWall
    {
        type            calculated;
        value           nonuniform List<scalar> 
20
(
-231554
-231763
-232194
-232874
-233848
-235181
-236967
-239337
-242481
-246668
-252298
-259974
-270655
-285942
-308730
-344810
-407453
-532294
-831375
-1.6985e+06
)
;
    }
    sideWallL
    {
        type            symmetry;
    }
    sideWallR
    {
        type            calculated;
        value           nonuniform List<scalar> 
45
(
-1.05255e+06
-270370
-96118.1
-44583.2
-25094.8
-15967.5
-10951
-7875.32
-5845.31
-4434.88
-3417.92
-2664.18
-2093.78
-1655.18
-1313.8
-1045.6
-833.422
-664.7
-530.049
-422.338
-336.065
-266.935
-211.56
-167.248
-131.842
-103.61
-81.152
-63.3375
-49.2497
-38.1467
-29.4274
-22.6061
-17.2907
-13.1657
-9.97772
-7.52386
-5.64235
-4.20443
-3.10791
-2.27174
-1.63159
-1.13605
-0.743627
-0.419987
-0.135724
)
;
    }
    frontAndBack
    {
        type            empty;
    }
}


// ************************************************************************* //
