/*--------------------------------*- C++ -*----------------------------------*\
  =========                 |
  \\      /  F ield         | OpenFOAM: The Open Source CFD Toolbox
   \\    /   O peration     | Website:  https://openfoam.org
    \\  /    A nd           | Version:  7
     \\/     M anipulation  |
\*---------------------------------------------------------------------------*/
FoamFile
{
    version     2.0;
    format      ascii;
    class       volScalarField;
    location    "31";
    object      gradTx;
}
// * * * * * * * * * * * * * * * * * * * * * * * * * * * * * * * * * * * * * //

dimensions      [0 -1 0 1 0 0 0];

internalField   nonuniform List<scalar> 
900
(
-52.2218
-159.941
-277.786
-413.543
-576.729
-779.667
-1039.08
-1378.56
-1832.71
-2454.13
-3326.41
-4589.31
-6492.13
-9518.79
-14716.8
-24680.9
-46871.1
-105980
-291552
-917531
-149.859
-458.866
-796.565
-1184.95
-1650.78
-2228.47
-2964.38
-3923.33
-5199.08
-6931.99
-9339.85
-12774.6
-17831.8
-25573.4
-38002.4
-59101.1
-97045.1
-168097
-297846
-484707
-236.741
-724.547
-1256.53
-1866.34
-2594.51
-3492.61
-4629.05
-6097.75
-8031.58
-10623.7
-14162.5
-19090.7
-26105.2
-36328
-51587.1
-74820
-110403
-163326
-233402
-296048
-309.71
-947.194
-1640.28
-2430.89
-3368.92
-4516.69
-5955.15
-7792.61
-10177.5
-13317.1
-17505.8
-23166.5
-30908.9
-41604.7
-56455.2
-76960.3
-104517
-139010
-175376
-198387
-366.219
-1119.02
-1934.33
-2858.76
-3946.81
-5265.13
-6898
-8954.67
-11579.1
-14963
-19362.6
-25118.4
-32673.8
-42577.7
-55437.8
-71745.2
-91429.5
-112962
-132043
-140950
-405.442
-1237.6
-2134.88
-3145.17
-4323.41
-5735.13
-7460.64
-9600.25
-12280.3
-15660
-19937.8
-25354.3
-32185
-40710
-51133.9
-63418.9
-76989
-90312.5
-100564
-103969
-427.837
-1304.5
-2245.2
-3296.36
-4510.08
-5946.8
-7678.09
-9789.63
-12384
-15582.4
-19524
-24359.1
-30231
-37238.2
-45362.9
-54356.7
-63583.3
-71869.3
-77501.2
-78612.7
-434.862
-1324.36
-2274.01
-3326.7
-4529.54
-5935.52
-7605.03
-9607.11
-12019.7
-14928.3
-18421.2
-22579.3
-27456.4
-33046.3
-39232.8
-45722.7
-51977.5
-57182
-60321.6
-60446.9
-428.676
-1303.96
-2233.6
-3255.74
-4411.27
-5744.75
-7304.91
-9144.61
-11319.7
-13885.8
-16892.8
-20373.8
-24329.1
-28702.2
-33348.4
-38001.7
-42251.7
-45555
-47311.2
-47021.1
-411.824
-1251.2
-2138.11
-3105.36
-4187.27
-5419.99
-6841.34
-8489.99
-10403.6
-12615.3
-15147.9
-18005.3
-21160
-24537.8
-28000.3
-31330.6
-34231.6
-36347
-37317.8
-36873.1
-386.957
-1174.28
-2001.98
-2897.49
-3888.77
-5004.27
-6272.3
-7719.96
-9370.98
-11242.5
-13340.3
-15651.9
-18138.8
-20726.4
-23296.1
-25681.3
-27671.9
-29035.3
-29553.6
-29076
-356.612
-1080.98
-1838.79
-2652.38
-3543.96
-4535.3
-5646.93
-6896.96
-8299.09
-9859.93
-11575.2
-13425.2
-15369.2
-17341.1
-19245
-20956.6
-22329.4
-23211
-23467.4
-23012.4
-323.06
-978.225
-1660.46
-2387.54
-3176.7
-4044.17
-5004.37
-6068.75
-7244.18
-8530.78
-9919.2
-11387.6
-12898.4
-14396.1
-15806.1
-17037.3
-17988.2
-18558.3
-18664
-18255.1
-288.214
-871.832
-1476.9
-2117.27
-2806.04
-3555
-4373.93
-5269.59
-6244.42
-7294.91
-8409.75
-9567.94
-10737.1
-11872.3
-12917
-13805
-14465.9
-14833.3
-14854
-14498.7
-253.599
-766.401
-1295.87
-1852.59
-2446.3
-3085.37
-3776.18
-4522.28
-5323.43
-6174.39
-7063.77
-7972.82
-8874.67
-9734.16
-10508.7
-11150.7
-11611.4
-11846.2
-11821.2
-11519.1
-220.358
-665.363
-1123.08
-1601.44
-2107.55
-2647.18
-3224.3
-3840.38
-4493.68
-5178.45
-5884.14
-6594.84
-7288.88
-7939.12
-8513.92
-8979.08
-9300.67
-9448.78
-9401.49
-9148.39
-189.289
-571.089
-962.409
-1369.09
-1796.2
-2247.61
-2725.62
-3230.41
-3759.53
-4307.41
-4864.81
-5418.61
-5951.71
-6443.41
-6870.35
-7207.99
-7432.7
-7524.22
-7468.27
-7258.69
-160.889
-485.047
-816.208
-1158.59
-1515.73
-1890.15
-2282.99
-2693.73
-3119.7
-3555.83
-3994.36
-4424.68
-4833.5
-5205.17
-5522.53
-5767.98
-5924.99
-5979.8
-5923.02
-5751.06
-135.416
-407.973
-685.59
-971.257
-1267.37
-1575.49
-1896.06
-2228.16
-2569.21
-2914.82
-3258.58
-3592.11
-3905.16
-4186
-4422.04
-4600.67
-4710.3
-4741.53
-4688.16
-4548.14
-112.938
-340.041
-570.731
-807.079
-1050.67
-1302.4
-1562.27
-1829.21
-2100.9
-2373.62
-2642.21
-2900.1
-3139.48
-3351.58
-3527.2
-3657.3
-3733.74
-3750.06
-3702.17
-3588.93
-93.3852
-281.012
-471.13
-665.137
-864.041
-1068.3
-1277.67
-1491.07
-1706.47
-1920.82
-2130.01
-2328.96
-2511.73
-2671.83
-2802.52
-2897.32
-2950.5
-2957.61
-2915.95
-2824.92
-76.5944
-230.367
-385.83
-543.899
-705.181
-869.852
-1037.55
-1207.26
-1377.26
-1545.09
-1707.52
-1860.64
-1999.99
-2120.73
-2217.98
-2287.07
-2323.96
-2325.58
-2290.16
-2217.4
-62.3411
-187.411
-313.596
-441.474
-571.381
-703.321
-836.882
-971.17
-1104.76
-1235.68
-1361.42
-1478.99
-1585.05
-1676.03
-1748.36
-1798.71
-1824.21
-1822.75
-1793.15
-1735.31
-50.3691
-151.357
-253.054
-355.807
-459.775
-564.864
-670.664
-776.407
-880.931
-982.68
-1079.72
-1169.78
-1250.36
-1318.83
-1372.6
-1409.27
-1426.83
-1423.8
-1399.41
-1353.68
-40.4108
-121.386
-202.792
-284.819
-367.515
-450.737
-534.105
-616.973
-698.41
-777.197
-851.85
-920.66
-981.762
-1033.23
-1073.17
-1099.86
-1111.89
-1108.23
-1088.38
-1052.39
-32.2023
-96.6954
-161.432
-226.501
-291.885
-357.421
-422.775
-487.412
-550.594
-611.376
-668.625
-721.06
-767.295
-805.915
-835.55
-854.969
-863.162
-859.426
-843.429
-815.252
-25.4934
-76.5262
-127.68
-178.981
-230.375
-281.703
-332.674
-382.857
-431.669
-478.385
-522.145
-561.989
-596.895
-625.824
-647.785
-661.895
-667.441
-663.935
-651.162
-629.21
-20.0542
-60.1815
-100.353
-140.558
-180.726
-220.708
-260.262
-299.042
-336.595
-372.362
-405.699
-435.888
-462.175
-483.802
-500.052
-510.292
-514.017
-510.893
-500.78
-483.76
-15.6779
-47.0363
-78.3932
-109.718
-140.935
-171.915
-202.457
-232.287
-261.053
-288.334
-313.641
-336.445
-356.189
-372.322
-384.325
-391.745
-394.228
-391.539
-383.594
-370.462
-12.1826
-36.5412
-60.8731
-85.1387
-109.267
-133.145
-156.611
-179.45
-201.392
-222.117
-241.261
-258.431
-273.22
-285.225
-294.074
-299.443
-301.08
-298.827
-292.629
-282.546
-9.41052
-28.2204
-46.9917
-65.6832
-84.2304
-102.539
-120.48
-137.886
-154.549
-170.231
-184.659
-197.544
-208.588
-217.5
-224.009
-227.887
-228.955
-227.104
-222.302
-214.598
-7.227
-21.6682
-36.0673
-50.3851
-64.5656
-78.5316
-92.1808
-105.384
-117.984
-129.801
-140.634
-150.271
-158.493
-165.089
-169.867
-172.662
-173.349
-171.854
-168.158
-162.299
-5.51849
-16.5427
-27.5262
-38.4337
-49.218
-59.8168
-70.1501
-80.1186
-89.6045
-98.4728
-106.576
-113.757
-119.858
-124.727
-128.225
-130.235
-130.671
-129.48
-126.651
-122.218
-4.19038
-12.5594
-20.8915
-29.1563
-37.3149
-45.3177
-53.1027
-60.5944
-67.7041
-74.3319
-80.3688
-85.7007
-90.213
-93.7958
-96.3501
-97.793
-98.0634
-97.1261
-94.9754
-91.637
-3.16463
-9.48365
-15.7706
-22.0001
-28.1408
-34.1535
-39.9907
-45.5951
-50.9007
-55.8335
-60.3136
-64.258
-67.5839
-70.2122
-72.0723
-73.1056
-73.2691
-72.5392
-70.9132
-68.4109
-2.37757
-7.12405
-11.8436
-16.5154
-21.1145
-25.6106
-29.9671
-34.1411
-38.0836
-41.7401
-45.0521
-47.9596
-50.4027
-52.3248
-53.6757
-54.4139
-54.5095
-53.9464
-52.7237
-50.8567
-1.77771
-5.32599
-8.8522
-12.3396
-15.7685
-19.1156
-22.3531
-25.4491
-28.3671
-31.0673
-33.507
-35.6429
-37.4319
-38.8335
-39.812
-40.3382
-40.3913
-39.9604
-39.0456
-37.6585
-1.32384
-3.96573
-6.58985
-9.1829
-11.7296
-14.2121
-16.6095
-18.8979
-21.0505
-23.0382
-24.83
-26.3947
-27.7012
-28.7208
-29.4281
-29.8026
-29.8297
-29.5022
-28.8206
-27.7938
-0.983279
-2.94523
-4.89304
-6.8163
-8.7032
-10.5401
-12.3114
-13.9993
-15.5842
-17.0447
-18.3584
-19.5027
-20.4556
-21.1964
-21.7072
-21.9734
-21.9851
-21.7374
-21.2309
-20.4725
-0.730438
-2.18767
-3.63375
-5.06055
-6.45899
-7.81873
-9.12803
-10.3737
-11.5413
-12.6152
-13.5792
-14.417
-15.1126
-15.6515
-16.0209
-16.2105
-16.2134
-16.0263
-15.65
-15.0894
-0.545529
-1.63371
-2.71309
-3.77735
-4.81947
-5.83156
-6.80479
-7.72932
-8.59442
-9.38868
-10.1002
-10.7173
-11.2282
-11.6227
-11.8915
-12.0273
-12.0254
-11.8836
-11.6025
-11.1859
-0.413545
-1.23834
-2.05613
-2.86193
-3.65025
-4.41501
-5.14944
-5.8461
-6.49695
-7.09344
-7.62682
-8.08831
-8.46954
-8.76281
-8.96149
-9.06039
-9.05605
-8.94699
-8.73387
-8.41959
-0.323426
-0.968398
-1.60766
-2.23715
-2.85248
-3.44879
-4.02077
-4.56261
-5.06805
-5.53052
-5.94332
-6.29977
-6.59351
-6.81874
-6.9705
-7.04492
-7.03945
-6.95308
-6.78639
-6.54168
-0.267418
-0.800644
-1.32898
-1.84898
-2.35693
-2.84877
-3.32007
-3.76602
-4.1815
-4.56115
-4.89951
-5.19119
-5.43108
-5.6145
-5.73752
-5.79707
-5.79115
-5.719
-5.58117
-5.37958
-0.240605
-0.720338
-1.19559
-1.6632
-2.11978
-2.56166
-2.98483
-3.38499
-3.75752
-4.09766
-4.40053
-4.66136
-4.87561
-5.03917
-5.14855
-5.20108
-5.19501
-5.12972
-5.00571
-4.82472
)
;

boundaryField
{
    topWall
    {
        type            calculated;
        value           nonuniform List<scalar> 
20
(
-0.240605
-0.720338
-1.19559
-1.6632
-2.11978
-2.56166
-2.98483
-3.38499
-3.75752
-4.09766
-4.40053
-4.66136
-4.87561
-5.03917
-5.14855
-5.20108
-5.19501
-5.12972
-5.00571
-4.82472
)
;
    }
    bottomWall
    {
        type            calculated;
        value           nonuniform List<scalar> 
20
(
-52.2218
-159.941
-277.786
-413.543
-576.729
-779.667
-1039.08
-1378.56
-1832.71
-2454.13
-3326.41
-4589.31
-6492.13
-9518.79
-14716.8
-24680.9
-46871.1
-105980
-291552
-917531
)
;
    }
    sideWallL
    {
        type            symmetry;
    }
    sideWallR
    {
        type            calculated;
        value           nonuniform List<scalar> 
45
(
-1.4015e+06
-588309
-320019
-203836
-141686
-103457
-77815.9
-59653.1
-46314.7
-36271.9
-28575.2
-22600.2
-17918.4
-14225.1
-11297.7
-8969.91
-7115.29
-5636.22
-4456.49
-3516.02
-2767.14
-2171.76
-1699.4
-1325.52
-1030.41
-798.155
-615.968
-473.547
-362.618
-276.548
-210.032
-158.839
-119.608
-89.6759
-66.9446
-49.765
-36.8491
-27.1956
-20.0314
-14.764
-10.9444
-8.23767
-6.40021
-5.26316
-4.72026
)
;
    }
    frontAndBack
    {
        type            empty;
    }
}


// ************************************************************************* //
