/*--------------------------------*- C++ -*----------------------------------*\
  =========                 |
  \\      /  F ield         | OpenFOAM: The Open Source CFD Toolbox
   \\    /   O peration     | Website:  https://openfoam.org
    \\  /    A nd           | Version:  7
     \\/     M anipulation  |
\*---------------------------------------------------------------------------*/
FoamFile
{
    version     2.0;
    format      ascii;
    class       volScalarField;
    location    "31";
    object      rhoc;
}
// * * * * * * * * * * * * * * * * * * * * * * * * * * * * * * * * * * * * * //

dimensions      [1 -3 0 0 0 0 0];

internalField   nonuniform List<scalar> 
900
(
2.67026e-06
2.66496e-06
2.65403e-06
2.63683e-06
2.61232e-06
2.579e-06
2.53481e-06
2.47701e-06
2.40194e-06
2.30485e-06
2.17961e-06
2.01851e-06
1.81227e-06
1.55082e-06
1.22608e-06
8.40639e-07
4.30846e-07
1.08657e-07
3.0924e-09
7.16688e-15
3.23133e-08
3.21006e-08
3.16658e-08
3.09899e-08
3.00447e-08
2.87932e-08
2.71919e-08
2.51943e-08
2.27591e-08
1.98637e-08
1.6528e-08
1.28476e-08
9.03605e-09
5.45459e-09
2.57639e-09
8.00177e-10
1.14422e-10
3.36206e-12
2.61681e-15
1.5405e-22
4.00028e-10
3.95291e-10
3.8569e-10
3.70989e-10
3.50884e-10
3.25083e-10
2.93421e-10
2.56052e-10
2.13701e-10
1.67961e-10
1.21553e-10
7.83301e-11
4.26952e-11
1.81408e-11
5.24927e-12
8.18824e-13
4.50697e-14
3.92728e-16
1.15963e-19
9.29604e-26
5.08479e-12
4.99604e-12
4.81788e-12
4.54956e-12
4.19151e-12
3.74726e-12
3.22613e-12
2.6463e-12
2.03761e-12
1.44225e-12
9.1087e-13
4.91612e-13
2.12724e-13
6.70049e-14
1.32304e-14
1.29306e-15
4.28774e-17
2.66029e-19
1.32227e-22
3.18271e-27
6.95672e-14
6.79652e-14
6.47806e-14
6.00651e-14
5.39271e-14
4.65657e-14
3.8308e-14
2.96355e-14
2.11769e-14
1.36374e-14
7.64862e-15
3.56135e-15
1.28638e-15
3.27111e-16
5.09208e-17
3.97108e-18
1.1723e-19
9.1384e-22
1.34344e-24
5.44774e-28
1.07713e-15
1.04678e-15
9.87034e-16
8.99974e-16
7.89276e-16
6.6065e-16
5.22169e-16
3.84096e-16
2.5785e-16
1.53881e-16
7.88017e-17
3.30148e-17
1.06102e-17
2.39825e-18
3.39679e-19
2.59733e-20
8.96874e-22
1.17543e-23
5.64629e-26
1.9429e-28
1.98028e-17
1.91588e-17
1.79013e-17
1.60949e-17
1.38444e-17
1.12997e-17
8.65313e-18
6.1245e-18
3.92795e-18
2.22442e-18
1.07545e-18
4.24958e-19
1.29774e-19
2.85421e-20
4.14853e-21
3.61291e-22
1.71419e-23
4.21924e-25
6.08674e-27
1.01536e-28
4.51596e-19
4.35432e-19
4.04081e-19
3.59559e-19
3.04987e-19
2.4457e-19
1.83355e-19
1.26651e-19
7.91028e-20
4.36195e-20
2.06093e-20
8.03955e-21
2.47559e-21
5.70921e-22
9.30821e-23
1.01508e-23
7.14893e-25
3.33993e-26
1.25326e-27
6.60738e-29
1.32619e-20
1.27604e-20
1.17926e-20
1.04292e-20
8.77695e-21
6.97342e-21
5.1762e-21
3.54165e-21
2.19639e-21
1.20925e-21
5.76436e-22
2.31e-22
7.52611e-23
1.92361e-23
3.72872e-24
5.35538e-25
5.72658e-26
4.88362e-27
4.07121e-28
4.9204e-29
5.16702e-22
4.96802e-22
4.58507e-22
4.04816e-22
3.40138e-22
2.70032e-22
2.00663e-22
1.37946e-22
8.64782e-23
4.86021e-23
2.40104e-23
1.02009e-23
3.64287e-24
1.07033e-24
2.54812e-25
4.91222e-26
7.89682e-27
1.154e-27
1.82873e-28
3.99779e-29
2.72843e-23
2.62495e-23
2.42601e-23
2.14742e-23
1.81218e-23
1.44886e-23
1.08874e-23
7.6144e-24
4.89923e-24
2.86184e-24
1.49585e-24
6.89234e-25
2.76106e-25
9.52053e-26
2.821e-26
7.28565e-27
1.70993e-27
3.96584e-28
1.03356e-28
3.44376e-29
1.9779e-24
1.90637e-24
1.76871e-24
1.57558e-24
1.34239e-24
1.08821e-24
8.33907e-25
5.99415e-25
4.00586e-25
2.46515e-25
1.38326e-25
7.01418e-26
3.19318e-26
1.30319e-26
4.804e-27
1.63536e-27
5.36759e-28
1.81661e-28
6.86863e-29
3.08875e-29
1.97882e-25
1.91272e-25
1.78521e-25
1.6055e-25
1.38698e-25
1.14626e-25
9.01729e-26
6.71334e-26
4.70046e-26
3.07545e-26
1.86952e-26
1.05145e-26
5.46561e-27
2.63721e-27
1.19588e-27
5.2175e-28
2.27064e-28
1.03167e-28
5.11612e-29
2.85052e-29
2.73045e-26
2.64901e-26
2.49131e-26
2.26763e-26
1.99292e-26
1.68602e-26
1.36812e-26
1.0606e-26
7.82333e-27
5.471e-27
3.61781e-27
2.26076e-27
1.33839e-27
7.55995e-28
4.12812e-28
2.22276e-28
1.21064e-28
6.85515e-29
4.13051e-29
2.6852e-29
5.16951e-27
5.03687e-27
4.77889e-27
4.4101e-27
3.95185e-27
3.43145e-27
2.88041e-27
2.33169e-27
1.81624e-27
1.35918e-27
9.76813e-28
6.75161e-28
4.50623e-28
2.92548e-28
1.86766e-28
1.18926e-28
7.67559e-29
5.09976e-29
3.5315e-29
2.56765e-29
1.32915e-27
1.30102e-27
1.24604e-27
1.16677e-27
1.06702e-27
9.51771e-28
8.26921e-28
6.98892e-28
5.7407e-28
4.58154e-28
3.55532e-28
2.68852e-28
1.98896e-28
1.44807e-28
1.04566e-28
7.55813e-29
5.5214e-29
4.11295e-29
3.14617e-29
2.48253e-29
4.55339e-28
4.47729e-28
4.32782e-28
4.11048e-28
3.8336e-28
3.50826e-28
3.148e-28
2.76817e-28
2.38491e-28
2.01377e-28
1.66829e-28
1.35875e-28
1.09134e-28
8.68072e-29
6.87323e-29
5.44831e-29
4.34896e-29
3.51439e-29
2.8877e-29
2.42008e-29
2.0136e-28
1.98805e-28
1.93763e-28
1.86374e-28
1.76854e-28
1.65496e-28
1.5267e-28
1.38813e-28
1.24407e-28
1.09951e-28
9.59197e-29
8.27255e-29
7.06878e-29
6.0012e-29
5.07869e-29
4.29979e-29
3.65514e-29
3.13039e-29
2.70888e-29
2.37382e-29
1.1011e-28
1.09079e-28
1.07036e-28
1.04022e-28
1.00101e-28
9.53622e-29
8.99232e-29
8.39271e-29
7.75403e-29
7.09442e-29
6.4325e-29
5.7861e-29
5.17097e-29
4.59972e-29
4.08119e-29
3.6203e-29
3.21833e-29
2.8736e-29
2.58229e-29
2.33932e-29
7.1042e-29
7.05585e-29
6.95976e-29
6.81724e-29
6.63038e-29
6.40224e-29
6.13698e-29
5.83987e-29
5.51736e-29
5.17681e-29
4.82626e-29
4.47396e-29
4.12788e-29
3.79523e-29
3.482e-29
3.19275e-29
2.93044e-29
2.69652e-29
2.49116e-29
2.31346e-29
5.18186e-29
5.15635e-29
5.10555e-29
5.02988e-29
4.93009e-29
4.8073e-29
4.66314e-29
4.49972e-29
4.31979e-29
4.12663e-29
3.92398e-29
3.71593e-29
3.5067e-29
3.30039e-29
3.10079e-29
2.91118e-29
2.73416e-29
2.57162e-29
2.42474e-29
2.29402e-29
4.12914e-29
4.11442e-29
4.08504e-29
4.04116e-29
3.98304e-29
3.91112e-29
3.82607e-29
3.72882e-29
3.62063e-29
3.50305e-29
3.37799e-29
3.24757e-29
3.11413e-29
2.98007e-29
2.84776e-29
2.71941e-29
2.59696e-29
2.48204e-29
2.3759e-29
2.27938e-29
3.50425e-29
3.49516e-29
3.477e-29
3.44981e-29
3.41369e-29
3.36881e-29
3.31547e-29
3.2541e-29
3.18531e-29
3.1099e-29
3.02888e-29
2.94344e-29
2.85492e-29
2.76477e-29
2.67448e-29
2.58553e-29
2.4993e-29
2.41702e-29
2.33977e-29
2.26836e-29
3.1104e-29
3.10449e-29
3.09269e-29
3.07499e-29
3.05144e-29
3.02209e-29
2.98709e-29
2.94665e-29
2.90108e-29
2.85082e-29
2.79643e-29
2.73861e-29
2.67817e-29
2.616e-29
2.55307e-29
2.49037e-29
2.42885e-29
2.36943e-29
2.31293e-29
2.26005e-29
2.85091e-29
2.84693e-29
2.83897e-29
2.82704e-29
2.81112e-29
2.79127e-29
2.76752e-29
2.74001e-29
2.7089e-29
2.67445e-29
2.63698e-29
2.59692e-29
2.55478e-29
2.51112e-29
2.46659e-29
2.42184e-29
2.37755e-29
2.33438e-29
2.29295e-29
2.25379e-29
2.67429e-29
2.67154e-29
2.66603e-29
2.65776e-29
2.64674e-29
2.63296e-29
2.61647e-29
2.59731e-29
2.57561e-29
2.55151e-29
2.52521e-29
2.49698e-29
2.46715e-29
2.4361e-29
2.40424e-29
2.37204e-29
2.33996e-29
2.30849e-29
2.27806e-29
2.24909e-29
2.5512e-29
2.54926e-29
2.54537e-29
2.53954e-29
2.53176e-29
2.52203e-29
2.51037e-29
2.49682e-29
2.48145e-29
2.46434e-29
2.44563e-29
2.4255e-29
2.40417e-29
2.38188e-29
2.35893e-29
2.33563e-29
2.31231e-29
2.28931e-29
2.26696e-29
2.24557e-29
2.46394e-29
2.46255e-29
2.45978e-29
2.45561e-29
2.45005e-29
2.44309e-29
2.43475e-29
2.42506e-29
2.41404e-29
2.40178e-29
2.38836e-29
2.37389e-29
2.35852e-29
2.34243e-29
2.32582e-29
2.3089e-29
2.29191e-29
2.2751e-29
2.25869e-29
2.24293e-29
2.40134e-29
2.40034e-29
2.39834e-29
2.39533e-29
2.39132e-29
2.38631e-29
2.38029e-29
2.3733e-29
2.36536e-29
2.35652e-29
2.34683e-29
2.33637e-29
2.32526e-29
2.3136e-29
2.30154e-29
2.28924e-29
2.27686e-29
2.26457e-29
2.25255e-29
2.24096e-29
2.35606e-29
2.35534e-29
2.35389e-29
2.35171e-29
2.3488e-29
2.34516e-29
2.34081e-29
2.33575e-29
2.33e-29
2.32359e-29
2.31657e-29
2.30899e-29
2.30094e-29
2.29248e-29
2.28372e-29
2.27477e-29
2.26575e-29
2.25678e-29
2.24799e-29
2.2395e-29
2.32315e-29
2.32262e-29
2.32156e-29
2.31998e-29
2.31786e-29
2.31522e-29
2.31206e-29
2.30839e-29
2.30421e-29
2.29956e-29
2.29447e-29
2.28898e-29
2.28313e-29
2.27699e-29
2.27063e-29
2.26413e-29
2.25756e-29
2.25103e-29
2.24462e-29
2.23841e-29
2.29915e-29
2.29876e-29
2.29799e-29
2.29684e-29
2.2953e-29
2.29338e-29
2.29108e-29
2.28841e-29
2.28538e-29
2.28201e-29
2.27831e-29
2.27433e-29
2.27009e-29
2.26564e-29
2.26102e-29
2.2563e-29
2.25154e-29
2.24679e-29
2.24213e-29
2.23761e-29
2.28163e-29
2.28135e-29
2.28079e-29
2.27995e-29
2.27883e-29
2.27743e-29
2.27577e-29
2.27383e-29
2.27163e-29
2.26918e-29
2.26651e-29
2.26362e-29
2.26055e-29
2.25733e-29
2.25399e-29
2.25057e-29
2.24712e-29
2.24368e-29
2.2403e-29
2.23702e-29
2.26885e-29
2.26864e-29
2.26824e-29
2.26763e-29
2.26681e-29
2.2658e-29
2.26459e-29
2.26318e-29
2.26159e-29
2.25982e-29
2.25789e-29
2.2558e-29
2.25358e-29
2.25125e-29
2.24884e-29
2.24637e-29
2.24388e-29
2.2414e-29
2.23895e-29
2.23658e-29
2.25953e-29
2.25938e-29
2.25909e-29
2.25865e-29
2.25806e-29
2.25732e-29
2.25645e-29
2.25543e-29
2.25428e-29
2.253e-29
2.25161e-29
2.2501e-29
2.2485e-29
2.24683e-29
2.24509e-29
2.24331e-29
2.24152e-29
2.23973e-29
2.23797e-29
2.23627e-29
2.25276e-29
2.25265e-29
2.25244e-29
2.25212e-29
2.25169e-29
2.25116e-29
2.25053e-29
2.2498e-29
2.24897e-29
2.24805e-29
2.24705e-29
2.24596e-29
2.24482e-29
2.24361e-29
2.24237e-29
2.24109e-29
2.23981e-29
2.23852e-29
2.23726e-29
2.23604e-29
2.24785e-29
2.24777e-29
2.24762e-29
2.24739e-29
2.24708e-29
2.2467e-29
2.24625e-29
2.24572e-29
2.24513e-29
2.24447e-29
2.24374e-29
2.24297e-29
2.24215e-29
2.24129e-29
2.24039e-29
2.23948e-29
2.23856e-29
2.23765e-29
2.23674e-29
2.23587e-29
2.24431e-29
2.24425e-29
2.24414e-29
2.24398e-29
2.24376e-29
2.24348e-29
2.24316e-29
2.24278e-29
2.24235e-29
2.24188e-29
2.24137e-29
2.24081e-29
2.24022e-29
2.23961e-29
2.23897e-29
2.23832e-29
2.23767e-29
2.23702e-29
2.23637e-29
2.23575e-29
2.24176e-29
2.24173e-29
2.24165e-29
2.24153e-29
2.24137e-29
2.24117e-29
2.24094e-29
2.24067e-29
2.24037e-29
2.24003e-29
2.23966e-29
2.23927e-29
2.23885e-29
2.23841e-29
2.23796e-29
2.23749e-29
2.23703e-29
2.23656e-29
2.23611e-29
2.23566e-29
2.23995e-29
2.23992e-29
2.23987e-29
2.23978e-29
2.23967e-29
2.23953e-29
2.23936e-29
2.23917e-29
2.23895e-29
2.23871e-29
2.23845e-29
2.23816e-29
2.23787e-29
2.23755e-29
2.23723e-29
2.2369e-29
2.23657e-29
2.23624e-29
2.23592e-29
2.2356e-29
2.23868e-29
2.23866e-29
2.23861e-29
2.23855e-29
2.23847e-29
2.23837e-29
2.23825e-29
2.23811e-29
2.23795e-29
2.23778e-29
2.23759e-29
2.23739e-29
2.23718e-29
2.23695e-29
2.23672e-29
2.23649e-29
2.23625e-29
2.23601e-29
2.23578e-29
2.23556e-29
2.23779e-29
2.23778e-29
2.23775e-29
2.2377e-29
2.23764e-29
2.23757e-29
2.23748e-29
2.23738e-29
2.23727e-29
2.23714e-29
2.237e-29
2.23686e-29
2.2367e-29
2.23654e-29
2.23637e-29
2.2362e-29
2.23603e-29
2.23586e-29
2.23569e-29
2.23553e-29
2.23721e-29
2.2372e-29
2.23717e-29
2.23714e-29
2.2371e-29
2.23704e-29
2.23697e-29
2.2369e-29
2.23681e-29
2.23672e-29
2.23661e-29
2.2365e-29
2.23639e-29
2.23627e-29
2.23614e-29
2.23601e-29
2.23588e-29
2.23576e-29
2.23563e-29
2.23551e-29
2.23685e-29
2.23684e-29
2.23683e-29
2.2368e-29
2.23676e-29
2.23672e-29
2.23666e-29
2.2366e-29
2.23654e-29
2.23646e-29
2.23638e-29
2.23629e-29
2.2362e-29
2.2361e-29
2.236e-29
2.2359e-29
2.2358e-29
2.23569e-29
2.23559e-29
2.2355e-29
2.23668e-29
2.23668e-29
2.23666e-29
2.23664e-29
2.2366e-29
2.23657e-29
2.23652e-29
2.23646e-29
2.2364e-29
2.23634e-29
2.23627e-29
2.23619e-29
2.23611e-29
2.23602e-29
2.23593e-29
2.23584e-29
2.23575e-29
2.23566e-29
2.23558e-29
2.23549e-29
)
;

boundaryField
{
    topWall
    {
        type            zeroGradient;
    }
    bottomWall
    {
        type            zeroGradient;
    }
    sideWallL
    {
        type            symmetry;
    }
    sideWallR
    {
        type            zeroGradient;
    }
    frontAndBack
    {
        type            empty;
    }
}


// ************************************************************************* //
