/*--------------------------------*- C++ -*----------------------------------*\
  =========                 |
  \\      /  F ield         | OpenFOAM: The Open Source CFD Toolbox
   \\    /   O peration     | Website:  https://openfoam.org
    \\  /    A nd           | Version:  7
     \\/     M anipulation  |
\*---------------------------------------------------------------------------*/
FoamFile
{
    version     2.0;
    format      ascii;
    class       volScalarField;
    location    "31";
    object      rhog;
}
// * * * * * * * * * * * * * * * * * * * * * * * * * * * * * * * * * * * * * //

dimensions      [1 -3 0 0 0 0 0];

internalField   nonuniform List<scalar> 
900
(
0.0469103
0.0468522
0.0467326
0.0465439
0.0462744
0.0459067
0.0454168
0.0447718
0.0439266
0.0428201
0.0413691
0.0394594
0.0369344
0.0335802
0.0291117
0.0231838
0.0155538
0.00690828
0.000871944
4.5202e-07
0.00343964
0.00342637
0.00339911
0.00335644
0.00329614
0.00321512
0.00310935
0.00297381
0.00280248
0.00258868
0.00232571
0.00200851
0.00163679
0.00122079
0.000789884
0.000400807
0.000129609
1.66458e-05
2.52044e-07
1.28695e-11
0.000271935
0.00027005
0.000266202
0.000260232
0.000251908
0.000240933
0.00022696
0.000209637
0.000188678
0.000163985
0.000135842
0.000105181
7.38764e-05
4.48779e-05
2.17856e-05
7.36637e-06
1.35047e-06
8.32213e-08
6.77763e-10
1.47665e-13
2.17344e-05
2.15113e-05
2.10583e-05
2.03629e-05
1.94081e-05
1.81755e-05
1.66497e-05
1.48265e-05
1.27234e-05
1.0394e-05
7.9432e-06
5.53665e-06
3.39036e-06
1.72298e-06
6.65202e-07
1.69539e-07
2.27494e-08
1.1204e-09
1.1958e-11
1.87678e-14
1.79196e-06
1.76754e-06
1.71829e-06
1.6435e-06
1.54245e-06
1.4148e-06
1.26127e-06
1.08449e-06
8.89961e-07
6.86978e-07
4.88865e-07
3.11762e-07
1.71159e-07
7.63592e-08
2.54667e-08
5.62866e-09
6.95466e-10
3.84443e-11
7.61397e-13
6.28459e-15
1.56942e-07
1.54311e-07
1.49036e-07
1.41113e-07
1.30572e-07
1.17533e-07
1.02271e-07
8.52911e-08
6.73885e-08
4.96642e-08
3.34323e-08
1.99817e-08
1.02035e-08
4.22611e-09
1.32426e-09
2.86743e-10
3.84222e-11
2.84829e-12
1.12073e-13
3.29145e-15
1.50367e-08
1.47441e-08
1.4161e-08
1.32934e-08
1.21553e-08
1.07736e-08
9.19419e-09
7.48777e-09
5.75131e-09
4.10261e-09
2.66378e-09
1.53369e-09
7.5715e-10
3.07127e-10
9.71377e-11
2.25467e-11
3.6139e-12
3.85257e-13
2.88031e-14
2.18232e-15
1.61966e-09
1.58479e-09
1.51564e-09
1.41362e-09
1.28134e-09
1.12317e-09
9.45777e-10
7.58421e-10
5.72706e-10
4.01463e-10
2.56587e-10
1.46215e-10
7.22928e-11
3.00329e-11
1.01153e-11
2.66619e-12
5.36303e-13
8.2956e-14
1.08655e-14
1.65938e-15
2.00843e-10
1.96254e-10
1.87187e-10
1.73895e-10
1.56812e-10
1.36615e-10
1.14267e-10
9.10209e-11
6.83537e-11
4.77919e-11
3.06436e-11
1.76985e-11
9.0207e-12
3.96839e-12
1.47457e-12
4.55305e-13
1.1665e-13
2.5626e-14
5.38011e-15
1.37378e-15
2.92251e-11
2.85419e-11
2.71956e-11
2.52304e-11
2.27193e-11
1.97712e-11
1.65344e-11
1.31941e-11
9.95938e-12
7.03805e-12
4.60062e-12
2.74458e-12
1.47309e-12
7.01626e-13
2.93403e-13
1.07405e-13
3.48741e-14
1.05013e-14
3.23968e-15
1.20211e-15
5.05978e-12
4.94274e-12
4.71247e-12
4.37708e-12
3.94974e-12
3.4495e-12
2.90163e-12
2.3369e-12
1.78925e-12
1.29184e-12
8.71655e-13
5.44503e-13
3.12091e-13
1.62975e-13
7.73324e-14
3.35394e-14
1.35782e-14
5.37211e-15
2.2463e-15
1.09194e-15
1.05111e-12
1.0278e-12
9.81954e-13
9.15203e-13
8.30162e-13
7.30551e-13
6.21229e-13
5.08035e-13
3.97373e-13
2.95495e-13
2.07606e-13
1.36993e-13
8.45066e-14
4.86335e-14
2.61856e-14
1.3336e-14
6.57571e-15
3.26576e-15
1.72365e-15
1.01788e-15
2.62918e-13
2.57496e-13
2.46825e-13
2.31271e-13
2.11414e-13
1.88072e-13
1.62309e-13
1.35399e-13
1.08746e-13
8.37423e-14
6.15913e-14
4.31316e-14
2.87179e-14
1.82065e-14
1.1057e-14
6.5145e-15
3.80279e-15
2.26487e-15
1.42218e-15
9.66414e-16
7.914e-14
7.76686e-14
7.47694e-14
7.05334e-14
6.51051e-14
5.86881e-14
5.1547e-14
4.40008e-14
3.64052e-14
2.91219e-14
2.24782e-14
1.67252e-14
1.20058e-14
8.34299e-15
5.65258e-15
3.77765e-15
2.53108e-15
1.73335e-15
1.23604e-15
9.29759e-16
2.85621e-14
2.8099e-14
2.7185e-14
2.58454e-14
2.41203e-14
2.20668e-14
1.97592e-14
1.72883e-14
1.47573e-14
1.22738e-14
9.94049e-15
7.84282e-15
6.0399e-15
4.55861e-15
3.39401e-15
2.51551e-15
1.87676e-15
1.42614e-15
1.11511e-15
9.03177e-16
1.22804e-14
1.2113e-14
1.1782e-14
1.1295e-14
1.06645e-14
9.90831e-15
9.04972e-15
8.1178e-15
7.14619e-15
6.17122e-15
5.22901e-15
4.35205e-15
3.56593e-15
2.88693e-15
2.32112e-15
1.86517e-15
1.50862e-15
1.23674e-15
1.03349e-15
8.8364e-16
6.22659e-15
6.15796e-15
6.02192e-15
5.82109e-15
5.55964e-15
5.24365e-15
4.88124e-15
4.48268e-15
4.06017e-15
3.6273e-15
3.19815e-15
2.78624e-15
2.40326e-15
2.0581e-15
1.75621e-15
1.49948e-15
1.28666e-15
1.11411e-15
9.76798e-16
8.69139e-16
3.66601e-15
3.63454e-15
3.57203e-15
3.47942e-15
3.35824e-15
3.21072e-15
3.03995e-15
2.84987e-15
2.64534e-15
2.4319e-15
2.21555e-15
2.00234e-15
1.79792e-15
1.6071e-15
1.4335e-15
1.27936e-15
1.14553e-15
1.03168e-15
9.36554e-16
8.58299e-16
2.45439e-15
2.43849e-15
2.40686e-15
2.35985e-15
2.29803e-15
2.22231e-15
2.13393e-15
2.03452e-15
1.92616e-15
1.8113e-15
1.69268e-15
1.5732e-15
1.45572e-15
1.3429e-15
1.23698e-15
1.13966e-15
1.05206e-15
9.74679e-16
9.07518e-16
8.50155e-16
1.82387e-15
1.81516e-15
1.79779e-15
1.77191e-15
1.73774e-15
1.69566e-15
1.64619e-15
1.59007e-15
1.52824e-15
1.46184e-15
1.39222e-15
1.32085e-15
1.24925e-15
1.17891e-15
1.11122e-15
1.04734e-15
9.88196e-16
9.34404e-16
8.86313e-16
8.44015e-16
1.46888e-15
1.46377e-15
1.45357e-15
1.43833e-15
1.41816e-15
1.39319e-15
1.36369e-15
1.32997e-15
1.2925e-15
1.25185e-15
1.20871e-15
1.16386e-15
1.11814e-15
1.07244e-15
1.0276e-15
9.84403e-16
9.43518e-16
9.05484e-16
8.7069e-16
8.39378e-16
1.25584e-15
1.25267e-15
1.24635e-15
1.23688e-15
1.22431e-15
1.20871e-15
1.19018e-15
1.16889e-15
1.14508e-15
1.11903e-15
1.09113e-15
1.0618e-15
1.03155e-15
1.00089e-15
9.70356e-16
9.40467e-16
9.117e-16
8.84467e-16
8.59107e-16
8.35872e-16
1.12132e-15
1.11927e-15
1.11517e-15
1.10903e-15
1.10086e-15
1.0907e-15
1.07858e-15
1.06461e-15
1.04889e-15
1.0316e-15
1.01295e-15
9.93177e-16
9.72591e-16
9.51513e-16
9.30283e-16
9.09248e-16
8.88738e-16
8.69061e-16
8.50482e-16
8.33221e-16
1.03292e-15
1.03155e-15
1.0288e-15
1.02468e-15
1.0192e-15
1.01235e-15
1.00418e-15
9.94726e-16
9.84053e-16
9.72256e-16
9.5946e-16
9.45819e-16
9.31516e-16
9.16756e-16
9.01763e-16
8.8677e-16
8.72007e-16
8.57697e-16
8.44042e-16
8.31218e-16
9.73009e-16
9.72065e-16
9.70175e-16
9.6734e-16
9.6356e-16
9.5884e-16
9.53194e-16
9.46647e-16
9.39237e-16
9.31021e-16
9.22075e-16
9.12496e-16
9.02401e-16
8.91924e-16
8.81214e-16
8.70429e-16
8.59732e-16
8.49282e-16
8.39228e-16
8.29707e-16
9.31435e-16
9.30773e-16
9.29448e-16
9.27458e-16
9.24803e-16
9.21486e-16
9.17514e-16
9.12902e-16
9.07673e-16
9.01863e-16
8.9552e-16
8.88707e-16
8.815e-16
8.7399e-16
8.66277e-16
8.58471e-16
8.50685e-16
8.43034e-16
8.35627e-16
8.28568e-16
9.02072e-16
9.01601e-16
9.00657e-16
8.99241e-16
8.9735e-16
8.94988e-16
8.92157e-16
8.88867e-16
8.85133e-16
8.80978e-16
8.76435e-16
8.71544e-16
8.66358e-16
8.60938e-16
8.55354e-16
8.4968e-16
8.43999e-16
8.38391e-16
8.32936e-16
8.27712e-16
8.81062e-16
8.80723e-16
8.80045e-16
8.79026e-16
8.77667e-16
8.75967e-16
8.73931e-16
8.71563e-16
8.68875e-16
8.65881e-16
8.62604e-16
8.59072e-16
8.5532e-16
8.51391e-16
8.47334e-16
8.43201e-16
8.3905e-16
8.3494e-16
8.30928e-16
8.2707e-16
8.65889e-16
8.65644e-16
8.65153e-16
8.64415e-16
8.63431e-16
8.622e-16
8.60726e-16
8.59013e-16
8.57066e-16
8.54898e-16
8.52524e-16
8.49963e-16
8.4724e-16
8.44386e-16
8.41433e-16
8.3842e-16
8.35387e-16
8.32377e-16
8.29431e-16
8.2659e-16
8.54863e-16
8.54684e-16
8.54327e-16
8.5379e-16
8.53075e-16
8.52181e-16
8.5111e-16
8.49865e-16
8.48452e-16
8.46877e-16
8.45153e-16
8.43292e-16
8.41313e-16
8.39237e-16
8.37087e-16
8.34891e-16
8.32677e-16
8.30476e-16
8.28318e-16
8.26233e-16
8.46818e-16
8.46688e-16
8.46427e-16
8.46036e-16
8.45515e-16
8.44864e-16
8.44085e-16
8.43179e-16
8.42151e-16
8.41007e-16
8.39753e-16
8.38401e-16
8.36962e-16
8.35452e-16
8.33888e-16
8.32289e-16
8.30675e-16
8.29069e-16
8.27493e-16
8.25967e-16
8.40937e-16
8.40842e-16
8.40652e-16
8.40367e-16
8.39987e-16
8.39513e-16
8.38945e-16
8.38286e-16
8.37539e-16
8.36707e-16
8.35796e-16
8.34813e-16
8.33768e-16
8.32672e-16
8.31535e-16
8.30373e-16
8.292e-16
8.28031e-16
8.26883e-16
8.2577e-16
8.36635e-16
8.36566e-16
8.36427e-16
8.3622e-16
8.35943e-16
8.35598e-16
8.35185e-16
8.34706e-16
8.34163e-16
8.33559e-16
8.32898e-16
8.32185e-16
8.31427e-16
8.30632e-16
8.29808e-16
8.28966e-16
8.28115e-16
8.27267e-16
8.26434e-16
8.25625e-16
8.3349e-16
8.3344e-16
8.33339e-16
8.33188e-16
8.32987e-16
8.32736e-16
8.32437e-16
8.32089e-16
8.31695e-16
8.31257e-16
8.30779e-16
8.30263e-16
8.29715e-16
8.2914e-16
8.28544e-16
8.27935e-16
8.2732e-16
8.26707e-16
8.26104e-16
8.25519e-16
8.31195e-16
8.31159e-16
8.31086e-16
8.30976e-16
8.3083e-16
8.30649e-16
8.30431e-16
8.3018e-16
8.29895e-16
8.29579e-16
8.29233e-16
8.28861e-16
8.28465e-16
8.28051e-16
8.27621e-16
8.27182e-16
8.26739e-16
8.26297e-16
8.25863e-16
8.25441e-16
8.29525e-16
8.29498e-16
8.29445e-16
8.29366e-16
8.29261e-16
8.29129e-16
8.28973e-16
8.28791e-16
8.28586e-16
8.28358e-16
8.28109e-16
8.27841e-16
8.27556e-16
8.27258e-16
8.2695e-16
8.26635e-16
8.26316e-16
8.25999e-16
8.25687e-16
8.25384e-16
8.28313e-16
8.28293e-16
8.28255e-16
8.28198e-16
8.28122e-16
8.28028e-16
8.27915e-16
8.27784e-16
8.27636e-16
8.27473e-16
8.27294e-16
8.27102e-16
8.26898e-16
8.26684e-16
8.26463e-16
8.26238e-16
8.2601e-16
8.25783e-16
8.2556e-16
8.25343e-16
8.27437e-16
8.27423e-16
8.27395e-16
8.27354e-16
8.273e-16
8.27232e-16
8.27151e-16
8.27057e-16
8.26951e-16
8.26834e-16
8.26706e-16
8.26568e-16
8.26423e-16
8.2627e-16
8.26113e-16
8.25951e-16
8.25789e-16
8.25627e-16
8.25468e-16
8.25313e-16
8.26807e-16
8.26797e-16
8.26778e-16
8.26748e-16
8.26709e-16
8.2666e-16
8.26602e-16
8.26535e-16
8.26459e-16
8.26375e-16
8.26284e-16
8.26186e-16
8.26082e-16
8.25973e-16
8.25861e-16
8.25746e-16
8.2563e-16
8.25515e-16
8.25402e-16
8.25292e-16
8.26358e-16
8.26351e-16
8.26337e-16
8.26316e-16
8.26288e-16
8.26253e-16
8.26211e-16
8.26163e-16
8.26109e-16
8.26049e-16
8.25984e-16
8.25914e-16
8.25839e-16
8.25762e-16
8.25682e-16
8.256e-16
8.25518e-16
8.25435e-16
8.25355e-16
8.25276e-16
8.26042e-16
8.26036e-16
8.26026e-16
8.26011e-16
8.25991e-16
8.25966e-16
8.25936e-16
8.25901e-16
8.25862e-16
8.25819e-16
8.25772e-16
8.25722e-16
8.25669e-16
8.25613e-16
8.25556e-16
8.25497e-16
8.25438e-16
8.25379e-16
8.25322e-16
8.25266e-16
8.25823e-16
8.25819e-16
8.25812e-16
8.258e-16
8.25786e-16
8.25767e-16
8.25745e-16
8.2572e-16
8.25692e-16
8.2566e-16
8.25626e-16
8.2559e-16
8.25551e-16
8.2551e-16
8.25469e-16
8.25426e-16
8.25383e-16
8.25341e-16
8.25299e-16
8.25258e-16
8.25677e-16
8.25675e-16
8.25669e-16
8.2566e-16
8.25649e-16
8.25635e-16
8.25619e-16
8.256e-16
8.25579e-16
8.25555e-16
8.25529e-16
8.25502e-16
8.25473e-16
8.25442e-16
8.25411e-16
8.25379e-16
8.25347e-16
8.25315e-16
8.25284e-16
8.25253e-16
8.25589e-16
8.25587e-16
8.25582e-16
8.25575e-16
8.25566e-16
8.25555e-16
8.25542e-16
8.25527e-16
8.2551e-16
8.25491e-16
8.2547e-16
8.25448e-16
8.25425e-16
8.25401e-16
8.25376e-16
8.25351e-16
8.25325e-16
8.253e-16
8.25275e-16
8.2525e-16
8.25547e-16
8.25545e-16
8.25541e-16
8.25535e-16
8.25527e-16
8.25517e-16
8.25506e-16
8.25492e-16
8.25477e-16
8.25461e-16
8.25442e-16
8.25423e-16
8.25403e-16
8.25381e-16
8.25359e-16
8.25337e-16
8.25315e-16
8.25292e-16
8.2527e-16
8.25249e-16
)
;

boundaryField
{
    topWall
    {
        type            calculated;
        value           uniform 0;
    }
    bottomWall
    {
        type            zeroGradient;
    }
    sideWallL
    {
        type            symmetry;
    }
    sideWallR
    {
        type            calculated;
        value           uniform 0;
    }
    frontAndBack
    {
        type            empty;
    }
}


// ************************************************************************* //
