/*--------------------------------*- C++ -*----------------------------------*\
  =========                 |
  \\      /  F ield         | OpenFOAM: The Open Source CFD Toolbox
   \\    /   O peration     | Website:  https://openfoam.org
    \\  /    A nd           | Version:  7
     \\/     M anipulation  |
\*---------------------------------------------------------------------------*/
FoamFile
{
    version     2.0;
    format      ascii;
    class       volScalarField;
    location    "31";
    object      rhois;
}
// * * * * * * * * * * * * * * * * * * * * * * * * * * * * * * * * * * * * * //

dimensions      [1 -3 0 0 0 0 0];

internalField   nonuniform List<scalar> 
900
(
0.131342
0.131234
0.13101
0.130657
0.130151
0.129458
0.128531
0.127303
0.125681
0.123536
0.120689
0.116878
0.111727
0.104674
0.0948622
0.080981
0.0611818
0.0343175
0.00768559
3.17229e-05
0.0204044
0.0203484
0.0202332
0.0200523
0.0197953
0.0194473
0.0189887
0.0183935
0.0176287
0.0166537
0.0154204
0.0138761
0.0119722
0.00968605
0.00706705
0.00432032
0.00190287
0.00042849
2.05308e-05
1.6821e-08
0.00318092
0.00316512
0.00313277
0.00308227
0.00301127
0.00291653
0.002794
0.00263892
0.00244616
0.00221088
0.00192991
0.00160415
0.00124234
0.000865932
0.000512916
0.000233718
6.83548e-05
9.09649e-06
2.83536e-07
7.11147e-10
0.000498616
0.000494945
0.000487459
0.000475871
0.000459764
0.000438616
0.000411843
0.000378892
0.000339387
0.000293369
0.000241647
0.000186219
0.00013066
8.01038e-05
4.02543e-05
1.49851e-05
3.51341e-06
4.01577e-07
1.55704e-08
1.69698e-10
8.01925e-05
7.94093e-05
7.78199e-05
7.53801e-05
7.20306e-05
6.77057e-05
6.23498e-05
5.59422e-05
4.85321e-05
4.02853e-05
3.15329e-05
2.28036e-05
1.48005e-05
8.27046e-06
3.74746e-06
1.26328e-06
2.80884e-07
3.53171e-08
2.18792e-09
8.01556e-11
1.35283e-05
1.33659e-05
1.3038e-05
1.25388e-05
1.18616e-05
1.10014e-05
9.95838e-06
8.74325e-06
7.38377e-06
5.93104e-06
4.46343e-06
3.08337e-06
1.90203e-06
1.00944e-06
4.38633e-07
1.464e-07
3.47823e-08
5.47355e-09
5.67403e-10
5.15598e-11
2.44624e-06
2.41222e-06
2.34383e-06
2.24051e-06
2.10192e-06
1.92842e-06
1.72194e-06
1.48687e-06
1.23111e-06
9.66678e-07
7.09515e-07
4.77778e-07
2.88183e-07
1.51069e-07
6.63421e-08
2.3413e-08
6.3835e-09
1.32193e-09
2.20873e-10
3.89422e-11
4.8375e-07
4.76327e-07
4.61463e-07
4.39159e-07
4.09517e-07
3.72864e-07
3.29904e-07
2.81884e-07
2.30734e-07
1.79093e-07
1.30138e-07
8.71377e-08
5.27417e-08
2.82188e-08
1.30253e-08
5.06972e-09
1.64256e-09
4.50012e-10
1.13374e-10
3.22685e-11
1.06468e-07
1.0474e-07
1.01292e-07
9.61441e-08
8.93533e-08
8.10347e-08
7.13939e-08
6.07559e-08
4.95824e-08
3.84623e-08
2.80593e-08
1.90112e-08
1.17947e-08
6.601e-09
3.28683e-09
1.44353e-09
5.61631e-10
1.99838e-10
7.05189e-11
2.8322e-11
2.64534e-08
2.60165e-08
2.51463e-08
2.38523e-08
2.21541e-08
2.00868e-08
1.7708e-08
1.51027e-08
1.23857e-08
9.69659e-09
7.18682e-09
4.99669e-09
3.228e-09
1.92104e-09
1.04719e-09
5.23446e-10
2.43305e-10
1.08989e-10
5.01892e-11
2.58109e-11
7.49925e-09
7.37758e-09
7.13562e-09
6.77664e-09
6.3069e-09
5.73698e-09
5.0833e-09
4.36921e-09
3.62521e-09
2.8875e-09
2.19454e-09
1.58176e-09
1.07525e-09
6.86841e-10
4.12298e-10
2.3417e-10
1.28048e-10
6.95733e-11
3.92796e-11
2.41304e-11
2.44278e-09
2.40517e-09
2.33043e-09
2.21964e-09
2.07481e-09
1.89921e-09
1.6978e-09
1.47742e-09
1.2469e-09
1.0166e-09
7.97489e-10
5.99815e-10
4.31503e-10
2.96852e-10
1.95981e-10
1.25294e-10
7.88442e-11
5.00093e-11
3.28798e-11
2.29651e-11
9.17737e-10
9.04789e-10
8.79053e-10
8.409e-10
7.90992e-10
7.30398e-10
6.60704e-10
5.84093e-10
5.03351e-10
4.21755e-10
3.42813e-10
2.69889e-10
2.05746e-10
1.52161e-10
1.09701e-10
7.77744e-11
5.49232e-11
3.92574e-11
2.88724e-11
2.21357e-11
3.97942e-10
3.9298e-10
3.83114e-10
3.68472e-10
3.49284e-10
3.25919e-10
2.98922e-10
2.69044e-10
2.37248e-10
2.04675e-10
1.72569e-10
1.42164e-10
1.1454e-10
9.04905e-11
7.04326e-11
5.43895e-11
4.20483e-11
3.28737e-11
2.62387e-11
2.15342e-11
1.98595e-10
1.96489e-10
1.92297e-10
1.86066e-10
1.77879e-10
1.67871e-10
1.56242e-10
1.43272e-10
1.2932e-10
1.1482e-10
1.00258e-10
8.61301e-11
7.28994e-11
6.09429e-11
5.0514e-11
4.17239e-11
3.4548e-11
2.88544e-11
2.4444e-11
2.10917e-11
1.13233e-10
1.1225e-10
1.10291e-10
1.07374e-10
1.03529e-10
9.88087e-11
9.32912e-11
8.70869e-11
8.0341e-11
7.32323e-11
6.59654e-11
5.87581e-11
5.18234e-11
4.53502e-11
3.94859e-11
3.43243e-11
2.99029e-11
2.62082e-11
2.31874e-11
2.0763e-11
7.28398e-11
7.23398e-11
7.13424e-11
6.9854e-11
6.78866e-11
6.54607e-11
6.26086e-11
5.93765e-11
5.5827e-11
5.20388e-11
4.81045e-11
4.41263e-11
4.02089e-11
3.64513e-11
3.2939e-11
2.97371e-11
2.68869e-11
2.44058e-11
2.22893e-11
2.05169e-11
5.19676e-11
5.16935e-11
5.11461e-11
5.03276e-11
4.92426e-11
4.78995e-11
4.6312e-11
4.45006e-11
4.24935e-11
4.03277e-11
3.80477e-11
3.57043e-11
3.33519e-11
3.10446e-11
2.88328e-11
2.67591e-11
2.48564e-11
2.31459e-11
2.16376e-11
2.03316e-11
4.03379e-11
4.01776e-11
3.98572e-11
3.93774e-11
3.87398e-11
3.79478e-11
3.70074e-11
3.59279e-11
3.4723e-11
3.34107e-11
3.20136e-11
3.05585e-11
2.90748e-11
2.75934e-11
2.61444e-11
2.47557e-11
2.34507e-11
2.22478e-11
2.11593e-11
2.01917e-11
3.3436e-11
3.33371e-11
3.31392e-11
3.28425e-11
3.24475e-11
3.19554e-11
3.13689e-11
3.06925e-11
2.99329e-11
2.90994e-11
2.82041e-11
2.72616e-11
2.62887e-11
2.53036e-11
2.43249e-11
2.33705e-11
2.24569e-11
2.15981e-11
2.08052e-11
2.00858e-11
2.91226e-11
2.90588e-11
2.89312e-11
2.87396e-11
2.8484e-11
2.81651e-11
2.77838e-11
2.73424e-11
2.68443e-11
2.62947e-11
2.57002e-11
2.50692e-11
2.44115e-11
2.37384e-11
2.30614e-11
2.23925e-11
2.17429e-11
2.1123e-11
2.05416e-11
2.00056e-11
2.63124e-11
2.62698e-11
2.61846e-11
2.60564e-11
2.58854e-11
2.56715e-11
2.54152e-11
2.51178e-11
2.4781e-11
2.44077e-11
2.40018e-11
2.35684e-11
2.31133e-11
2.26436e-11
2.21669e-11
2.1691e-11
2.12238e-11
2.07728e-11
2.03445e-11
1.99447e-11
2.44203e-11
2.43911e-11
2.43325e-11
2.42444e-11
2.41268e-11
2.39795e-11
2.38028e-11
2.35974e-11
2.33641e-11
2.31048e-11
2.28217e-11
2.25179e-11
2.21974e-11
2.18645e-11
2.15243e-11
2.1182e-11
2.08432e-11
2.05131e-11
2.01968e-11
1.98986e-11
2.31132e-11
2.30927e-11
2.30516e-11
2.29898e-11
2.29072e-11
2.28037e-11
2.26794e-11
2.25347e-11
2.23702e-11
2.21869e-11
2.19863e-11
2.17703e-11
2.15415e-11
2.13028e-11
2.10576e-11
2.08095e-11
2.05624e-11
2.03199e-11
2.0086e-11
1.98637e-11
2.21923e-11
2.21776e-11
2.21483e-11
2.21042e-11
2.20453e-11
2.19715e-11
2.18828e-11
2.17795e-11
2.16618e-11
2.15306e-11
2.13867e-11
2.12315e-11
2.10666e-11
2.0894e-11
2.07161e-11
2.05353e-11
2.03543e-11
2.01759e-11
2.00028e-11
1.98374e-11
2.15337e-11
2.15231e-11
2.1502e-11
2.14702e-11
2.14277e-11
2.13744e-11
2.13104e-11
2.12358e-11
2.11509e-11
2.10561e-11
2.0952e-11
2.08396e-11
2.072e-11
2.05945e-11
2.04648e-11
2.03326e-11
2.01998e-11
2.00684e-11
1.99404e-11
1.98175e-11
2.10576e-11
2.10499e-11
2.10345e-11
2.10114e-11
2.09804e-11
2.09417e-11
2.08952e-11
2.0841e-11
2.07793e-11
2.07104e-11
2.06347e-11
2.05528e-11
2.04657e-11
2.03741e-11
2.02793e-11
2.01824e-11
2.00849e-11
1.99882e-11
1.98936e-11
1.98025e-11
2.07107e-11
2.0705e-11
2.06938e-11
2.06769e-11
2.06543e-11
2.0626e-11
2.0592e-11
2.05525e-11
2.05074e-11
2.04571e-11
2.04019e-11
2.03421e-11
2.02784e-11
2.02115e-11
2.01421e-11
2.00711e-11
1.99995e-11
1.99284e-11
1.98586e-11
1.97913e-11
2.04566e-11
2.04525e-11
2.04443e-11
2.04319e-11
2.04153e-11
2.03946e-11
2.03697e-11
2.03407e-11
2.03078e-11
2.0271e-11
2.02306e-11
2.01869e-11
2.01403e-11
2.00914e-11
2.00406e-11
1.99886e-11
1.99361e-11
1.98838e-11
1.98325e-11
1.97829e-11
2.027e-11
2.0267e-11
2.02609e-11
2.02518e-11
2.02397e-11
2.02245e-11
2.02062e-11
2.0185e-11
2.01609e-11
2.0134e-11
2.01044e-11
2.00725e-11
2.00384e-11
2.00027e-11
1.99655e-11
1.99275e-11
1.9889e-11
1.98508e-11
1.98131e-11
1.97767e-11
2.01328e-11
2.01305e-11
2.01261e-11
2.01194e-11
2.01105e-11
2.00993e-11
2.0086e-11
2.00704e-11
2.00528e-11
2.00331e-11
2.00115e-11
1.99882e-11
1.99633e-11
1.99372e-11
1.99101e-11
1.98823e-11
1.98542e-11
1.98262e-11
1.97987e-11
1.9772e-11
2.00318e-11
2.00301e-11
2.00269e-11
2.0022e-11
2.00154e-11
2.00073e-11
1.99975e-11
1.99861e-11
1.99732e-11
1.99588e-11
1.99431e-11
1.99261e-11
1.9908e-11
1.98889e-11
1.98692e-11
1.98489e-11
1.98285e-11
1.98081e-11
1.97881e-11
1.97686e-11
1.99575e-11
1.99563e-11
1.9954e-11
1.99504e-11
1.99456e-11
1.99396e-11
1.99325e-11
1.99242e-11
1.99148e-11
1.99043e-11
1.98928e-11
1.98804e-11
1.98673e-11
1.98534e-11
1.98391e-11
1.98244e-11
1.98096e-11
1.97948e-11
1.97802e-11
1.9766e-11
1.99031e-11
1.99022e-11
1.99005e-11
1.98978e-11
1.98944e-11
1.989e-11
1.98848e-11
1.98788e-11
1.98719e-11
1.98643e-11
1.9856e-11
1.9847e-11
1.98375e-11
1.98274e-11
1.98171e-11
1.98064e-11
1.97957e-11
1.9785e-11
1.97744e-11
1.97642e-11
1.98632e-11
1.98626e-11
1.98613e-11
1.98594e-11
1.98569e-11
1.98537e-11
1.98499e-11
1.98456e-11
1.98406e-11
1.98351e-11
1.98291e-11
1.98226e-11
1.98157e-11
1.98084e-11
1.98009e-11
1.97933e-11
1.97855e-11
1.97778e-11
1.97702e-11
1.97628e-11
1.98341e-11
1.98337e-11
1.98328e-11
1.98314e-11
1.98295e-11
1.98273e-11
1.98245e-11
1.98214e-11
1.98178e-11
1.98138e-11
1.98095e-11
1.98048e-11
1.97998e-11
1.97946e-11
1.97892e-11
1.97837e-11
1.97781e-11
1.97726e-11
1.97671e-11
1.97618e-11
1.9813e-11
1.98127e-11
1.9812e-11
1.9811e-11
1.98097e-11
1.9808e-11
1.98061e-11
1.98038e-11
1.98012e-11
1.97983e-11
1.97952e-11
1.97919e-11
1.97883e-11
1.97846e-11
1.97807e-11
1.97768e-11
1.97728e-11
1.97688e-11
1.97649e-11
1.97611e-11
1.97977e-11
1.97975e-11
1.9797e-11
1.97963e-11
1.97953e-11
1.97941e-11
1.97927e-11
1.97911e-11
1.97892e-11
1.97872e-11
1.9785e-11
1.97825e-11
1.978e-11
1.97773e-11
1.97746e-11
1.97718e-11
1.97689e-11
1.97661e-11
1.97633e-11
1.97606e-11
1.97867e-11
1.97865e-11
1.97862e-11
1.97857e-11
1.9785e-11
1.97842e-11
1.97831e-11
1.9782e-11
1.97806e-11
1.97792e-11
1.97776e-11
1.97759e-11
1.9774e-11
1.97721e-11
1.97702e-11
1.97682e-11
1.97661e-11
1.97641e-11
1.97621e-11
1.97602e-11
1.97789e-11
1.97787e-11
1.97785e-11
1.97781e-11
1.97776e-11
1.9777e-11
1.97763e-11
1.97755e-11
1.97745e-11
1.97735e-11
1.97723e-11
1.97711e-11
1.97698e-11
1.97684e-11
1.9767e-11
1.97656e-11
1.97642e-11
1.97627e-11
1.97613e-11
1.97599e-11
1.97733e-11
1.97732e-11
1.97731e-11
1.97728e-11
1.97724e-11
1.9772e-11
1.97715e-11
1.97709e-11
1.97702e-11
1.97694e-11
1.97686e-11
1.97677e-11
1.97668e-11
1.97658e-11
1.97648e-11
1.97638e-11
1.97628e-11
1.97617e-11
1.97607e-11
1.97598e-11
1.97695e-11
1.97694e-11
1.97693e-11
1.97691e-11
1.97689e-11
1.97685e-11
1.97681e-11
1.97677e-11
1.97672e-11
1.97667e-11
1.97661e-11
1.97654e-11
1.97647e-11
1.9764e-11
1.97633e-11
1.97626e-11
1.97618e-11
1.97611e-11
1.97603e-11
1.97596e-11
1.9767e-11
1.97669e-11
1.97668e-11
1.97667e-11
1.97665e-11
1.97662e-11
1.97659e-11
1.97656e-11
1.97652e-11
1.97648e-11
1.97644e-11
1.97639e-11
1.97634e-11
1.97628e-11
1.97623e-11
1.97617e-11
1.97612e-11
1.97606e-11
1.97601e-11
1.97595e-11
1.97654e-11
1.97654e-11
1.97653e-11
1.97652e-11
1.9765e-11
1.97648e-11
1.97646e-11
1.97643e-11
1.9764e-11
1.97637e-11
1.97633e-11
1.9763e-11
1.97625e-11
1.97621e-11
1.97617e-11
1.97612e-11
1.97608e-11
1.97603e-11
1.97599e-11
1.97595e-11
1.97647e-11
1.97646e-11
1.97646e-11
1.97645e-11
1.97643e-11
1.97642e-11
1.9764e-11
1.97637e-11
1.97635e-11
1.97632e-11
1.97628e-11
1.97625e-11
1.97622e-11
1.97618e-11
1.97614e-11
1.9761e-11
1.97606e-11
1.97602e-11
1.97598e-11
1.97595e-11
)
;

boundaryField
{
    topWall
    {
        type            zeroGradient;
    }
    bottomWall
    {
        type            zeroGradient;
    }
    sideWallL
    {
        type            symmetry;
    }
    sideWallR
    {
        type            zeroGradient;
    }
    frontAndBack
    {
        type            empty;
    }
}


// ************************************************************************* //
