/*--------------------------------*- C++ -*----------------------------------*\
  =========                 |
  \\      /  F ield         | OpenFOAM: The Open Source CFD Toolbox
   \\    /   O peration     | Website:  https://openfoam.org
    \\  /    A nd           | Version:  7
     \\/     M anipulation  |
\*---------------------------------------------------------------------------*/
FoamFile
{
    version     2.0;
    format      ascii;
    class       volScalarField;
    location    "31";
    object      T;
}
// * * * * * * * * * * * * * * * * * * * * * * * * * * * * * * * * * * * * * //

dimensions      [0 0 0 1 0 0 0];

internalField   nonuniform List<scalar> 
900
(
559.845
559.824
559.781
559.713
559.615
559.482
559.303
559.066
558.752
558.333
557.77
557.003
555.935
554.406
552.127
548.519
542.255
529.771
499.862
413.15
520.161
520.101
519.978
519.783
519.504
519.122
518.612
517.937
517.043
515.857
514.27
512.121
509.16
504.988
498.931
489.787
475.291
450.969
408.052
331.831
485.965
485.87
485.675
485.368
484.929
484.33
483.532
482.478
481.093
479.266
476.843
473.601
469.207
463.159
454.676
442.524
424.748
398.363
359.417
305.002
455.869
455.746
455.491
455.089
454.518
453.742
452.712
451.36
449.595
447.289
444.268
440.287
435.001
427.923
418.359
405.341
387.575
363.534
331.971
293.384
429.437
429.29
428.989
428.517
427.846
426.938
425.74
424.179
422.158
419.547
416.173
411.802
406.125
398.733
389.094
376.557
360.396
339.986
315.211
287.169
406.311
406.149
405.816
405.295
404.558
403.566
402.264
400.582
398.424
395.67
392.16
387.694
382.018
374.82
365.734
354.367
340.367
323.571
304.242
283.346
386.161
385.99
385.639
385.091
384.32
383.287
381.942
380.216
378.026
375.263
371.793
367.453
362.049
355.361
347.154
337.215
325.411
311.782
296.663
280.782
368.674
368.5
368.145
367.591
366.814
365.779
364.44
362.737
360.597
357.929
354.626
350.561
345.594
339.578
332.375
323.885
314.086
303.094
291.213
278.965
353.564
353.393
353.042
352.499
351.74
350.735
349.442
347.813
345.784
343.285
340.23
336.528
332.081
326.796
320.6
313.457
305.399
296.556
287.177
277.631
340.563
340.398
340.063
339.543
338.82
337.868
336.652
335.132
333.256
330.97
328.21
324.911
321.008
316.447
311.193
305.247
298.661
291.554
284.122
276.627
329.426
329.271
328.956
328.471
327.798
326.915
325.796
324.406
322.708
320.658
318.211
315.322
311.95
308.066
303.659
298.748
293.387
287.679
281.773
275.858
319.929
319.786
319.496
319.051
318.435
317.633
316.621
315.374
313.862
312.055
309.918
307.424
304.548
301.277
297.612
293.579
289.229
284.647
279.945
275.26
311.866
311.736
311.474
311.072
310.519
309.802
308.902
307.8
306.474
304.902
303.062
300.935
298.507
295.775
292.748
289.453
285.934
282.257
278.51
274.792
305.052
304.937
304.703
304.346
303.856
303.223
302.434
301.474
300.326
298.976
297.408
295.612
293.581
291.317
288.832
286.15
283.31
280.364
277.377
274.423
299.32
299.218
299.013
298.7
298.272
297.722
297.038
296.211
295.229
294.082
292.759
291.256
289.57
287.706
285.677
283.503
281.216
278.858
276.478
274.13
294.52
294.432
294.254
293.983
293.613
293.14
292.555
291.85
291.018
290.053
288.947
287.699
286.309
284.783
283.134
281.378
279.542
277.658
275.762
273.897
290.52
290.444
290.291
290.059
289.744
289.341
288.845
288.25
287.553
286.747
285.83
284.801
283.662
282.42
281.085
279.672
278.202
276.699
275.192
273.712
287.201
287.137
287.007
286.81
286.544
286.204
285.788
285.291
284.71
284.043
283.288
282.445
281.518
280.512
279.436
278.303
277.129
275.933
274.737
273.564
284.461
284.407
284.298
284.132
283.909
283.625
283.279
282.867
282.388
281.839
281.222
280.536
279.785
278.974
278.11
277.205
276.27
275.321
274.374
273.446
282.209
282.163
282.073
281.935
281.75
281.515
281.229
280.89
280.497
280.05
279.548
278.993
278.388
277.737
277.047
276.326
275.584
274.832
274.084
273.352
280.366
280.329
280.254
280.14
279.988
279.795
279.56
279.284
278.964
278.601
278.196
277.749
277.264
276.744
276.195
275.623
275.036
274.443
273.853
273.277
278.866
278.835
278.774
278.681
278.556
278.399
278.208
277.984
277.725
277.433
277.107
276.75
276.363
275.95
275.515
275.063
274.6
274.133
273.67
273.217
277.65
277.625
277.575
277.5
277.399
277.271
277.118
276.937
276.729
276.495
276.235
275.95
275.643
275.316
274.973
274.617
274.253
273.887
273.524
273.17
276.67
276.65
276.609
276.549
276.467
276.365
276.241
276.096
275.931
275.744
275.538
275.312
275.07
274.812
274.542
274.263
273.978
273.692
273.409
273.133
275.883
275.867
275.835
275.786
275.721
275.639
275.54
275.425
275.294
275.146
274.983
274.805
274.614
274.412
274.201
273.983
273.761
273.538
273.318
273.103
275.255
275.242
275.216
275.177
275.125
275.06
274.982
274.891
274.787
274.671
274.543
274.404
274.254
274.097
273.932
273.762
273.59
273.417
273.246
273.08
274.755
274.745
274.724
274.694
274.653
274.602
274.54
274.468
274.387
274.296
274.196
274.087
273.971
273.848
273.72
273.589
273.456
273.322
273.19
273.062
274.36
274.352
274.336
274.311
274.279
274.239
274.191
274.135
274.071
274
273.922
273.838
273.748
273.653
273.555
273.453
273.351
273.248
273.146
273.047
274.048
274.042
274.03
274.011
273.986
273.954
273.917
273.873
273.824
273.769
273.709
273.644
273.574
273.501
273.425
273.347
273.269
273.19
273.112
273.036
273.805
273.8
273.79
273.775
273.756
273.732
273.703
273.669
273.631
273.589
273.542
273.492
273.439
273.383
273.325
273.265
273.205
273.145
273.085
273.028
273.615
273.611
273.603
273.592
273.577
273.558
273.536
273.51
273.481
273.448
273.413
273.375
273.334
273.291
273.247
273.202
273.156
273.11
273.065
273.021
273.467
273.464
273.459
273.45
273.438
273.424
273.407
273.387
273.365
273.34
273.313
273.284
273.253
273.22
273.187
273.152
273.118
273.083
273.049
273.016
273.354
273.351
273.347
273.34
273.332
273.321
273.308
273.293
273.276
273.257
273.236
273.214
273.191
273.166
273.141
273.115
273.089
273.063
273.037
273.012
273.266
273.265
273.261
273.256
273.25
273.241
273.231
273.22
273.207
273.193
273.177
273.161
273.143
273.125
273.106
273.086
273.067
273.047
273.028
273.009
273.2
273.198
273.196
273.192
273.187
273.181
273.173
273.165
273.155
273.144
273.133
273.12
273.107
273.093
273.079
273.064
273.05
273.035
273.021
273.007
273.149
273.148
273.146
273.143
273.139
273.135
273.129
273.123
273.116
273.108
273.099
273.09
273.08
273.069
273.059
273.048
273.037
273.026
273.015
273.005
273.111
273.11
273.108
273.106
273.104
273.1
273.096
273.091
273.086
273.08
273.073
273.066
273.059
273.051
273.043
273.035
273.027
273.019
273.011
273.004
273.082
273.081
273.08
273.079
273.077
273.074
273.071
273.067
273.063
273.059
273.054
273.049
273.044
273.038
273.032
273.026
273.02
273.014
273.008
273.003
273.06
273.06
273.059
273.058
273.057
273.055
273.052
273.05
273.047
273.043
273.04
273.036
273.032
273.028
273.024
273.019
273.015
273.01
273.006
273.002
273.045
273.044
273.044
273.043
273.042
273.04
273.039
273.037
273.035
273.032
273.029
273.027
273.024
273.021
273.017
273.014
273.011
273.008
273.005
273.001
273.033
273.033
273.033
273.032
273.031
273.03
273.029
273.027
273.026
273.024
273.022
273.02
273.018
273.015
273.013
273.011
273.008
273.006
273.003
273.001
273.025
273.025
273.025
273.024
273.023
273.023
273.022
273.021
273.019
273.018
273.016
273.015
273.013
273.012
273.01
273.008
273.006
273.004
273.003
273.001
273.02
273.019
273.019
273.019
273.018
273.018
273.017
273.016
273.015
273.014
273.013
273.012
273.01
273.009
273.008
273.006
273.005
273.003
273.002
273.001
273.016
273.016
273.016
273.015
273.015
273.015
273.014
273.013
273.012
273.012
273.011
273.01
273.008
273.007
273.006
273.005
273.004
273.003
273.002
273.001
273.014
273.014
273.014
273.014
273.013
273.013
273.012
273.012
273.011
273.01
273.009
273.009
273.008
273.007
273.006
273.005
273.004
273.002
273.001
273
)
;

boundaryField
{
    topWall
    {
        type            zeroGradient;
    }
    bottomWall
    {
        type            codedFixedValue;
        value           uniform 583;
        name            heating;
        code            #{
            const scalar t = this->db().time().value();
            const scalar Ttemp = 273 + 10*t;
            operator==(Ttemp);
        #};
    }
    sideWallL
    {
        type            symmetry;
    }
    sideWallR
    {
        type            fixedValue;
        value           uniform 273;
    }
    frontAndBack
    {
        type            empty;
    }
}


// ************************************************************************* //
