/*--------------------------------*- C++ -*----------------------------------*\
  =========                 |
  \\      /  F ield         | OpenFOAM: The Open Source CFD Toolbox
   \\    /   O peration     | Website:  https://openfoam.org
    \\  /    A nd           | Version:  7
     \\/     M anipulation  |
\*---------------------------------------------------------------------------*/
FoamFile
{
    version     2.0;
    format      ascii;
    class       volScalarField;
    location    "10";
    object      gradTx;
}
// * * * * * * * * * * * * * * * * * * * * * * * * * * * * * * * * * * * * * //

dimensions      [0 -1 0 1 0 0 0];

internalField   nonuniform List<scalar> 
900
(
-1.67564
-5.37298
-10.1772
-17.0689
-27.4438
-43.395
-68.1475
-106.762
-167.318
-262.988
-415.86
-664.437
-1079.49
-1801.05
-3135.43
-5845.99
-12148.7
-29537
-86675.3
-299879
-4.80566
-15.4026
-29.1496
-48.8271
-78.3759
-123.672
-193.713
-302.499
-472.135
-738.135
-1158.83
-1832.79
-2932.85
-4775.66
-7971.49
-13757.1
-24730
-46280.1
-87890.7
-153227
-7.45967
-23.8891
-45.1366
-75.4265
-120.695
-189.704
-295.706
-459.003
-711.031
-1100.99
-1706.92
-2654.56
-4150.08
-6537.12
-10394
-16684.3
-26921
-43043.1
-65779.7
-88162.5
-9.44735
-30.219
-56.9658
-94.8759
-151.154
-236.287
-365.861
-563.264
-863.756
-1320.68
-2014.98
-3069.63
-4671.05
-7098.52
-10757.2
-16190.5
-23990
-34391.8
-46163
-54633.3
-10.6715
-34.085
-64.0718
-106.272
-168.405
-261.511
-401.664
-612.381
-928.028
-1398.59
-2096.15
-3123.32
-4622.68
-6784.04
-9839.38
-14021.7
-19438.9
-25791
-31902.8
-35372.6
-11.1339
-35.5029
-66.5212
-109.817
-172.968
-266.595
-405.808
-612.1
-915.815
-1359.23
-2000.07
-2914.88
-4200.37
-5968.88
-8329.98
-11344.7
-14934.9
-18740.7
-21976.7
-23476.9
-10.9217
-34.763
-64.9054
-106.605
-166.81
-255.057
-384.569
-573.605
-847.017
-1237.89
-1788.87
-2552.34
-3587.74
-4953.28
-6687.39
-8774.96
-11096
-13367.4
-15118.8
-15785.3
-10.1793
-32.3382
-60.1552
-98.2779
-152.735
-231.617
-345.852
-510.065
-743.427
-1070.28
-1520.16
-2126.42
-2922.4
-3933.43
-5162.86
-6571.28
-8051.48
-9409.79
-10376.2
-10672
-9.07716
-28.7807
-53.3355
-86.665
-133.761
-201.17
-297.499
-433.91
-624.48
-886.238
-1238.54
-1701.32
-2291.42
-3016.52
-3865.93
-4799.23
-5735.6
-6550.82
-7092.07
-7218.56
-7.78283
-24.6286
-45.4686
-73.4837
-112.643
-168.032
-246.161
-355.206
-505.084
-707.205
-973.674
-1315.64
-1740.48
-2247.55
-2822.81
-3433.03
-4022.09
-4512.93
-4819.23
-4868.25
-6.44022
-20.3406
-37.4128
-60.1446
-91.5815
-135.536
-196.762
-281.042
-395.117
-546.355
-741.998
-987.852
-1286.29
-1633.58
-2016.86
-2411.51
-2780.34
-3076.42
-3250.89
-3265.36
-5.15837
-16.2615
-29.8021
-47.664
-72.1109
-105.914
-152.436
-215.645
-299.983
-410.052
-550.004
-722.588
-927.835
-1161.46
-1413.24
-1666.02
-1895.87
-2074.52
-2174.2
-2174.31
-4.0087
-12.6144
-23.0378
-36.6643
-55.1286
-80.3885
-114.761
-160.892
-221.632
-299.769
-397.578
-516.176
-654.688
-809.334
-972.635
-1133.07
-1275.57
-1383.22
-1440.18
-1435.26
-3.02847
-9.51342
-17.3169
-27.4304
-41.0042
-59.3865
-84.1335
-116.969
-159.678
-213.899
-280.82
-360.751
-452.623
-553.481
-658.118
-759.02
-846.843
-911.53
-944.011
-938.159
-2.22788
-6.98702
-12.6782
-19.9936
-29.723
-42.7737
-60.1675
-83.0032
-112.372
-149.213
-194.108
-247.015
-306.971
-371.829
-438.092
-500.968
-554.735
-593.441
-611.891
-606.705
-1.59814
-5.00429
-9.05357
-14.2179
-21.0276
-30.0801
-42.0325
-57.5711
-77.3494
-101.891
-131.457
-165.883
-204.412
-245.555
-287.029
-325.837
-358.509
-381.545
-391.968
-387.906
-1.11923
-3.49956
-6.31362
-9.87623
-14.5359
-20.6782
-28.7177
-39.0749
-52.1338
-68.1782
-87.3085
-109.346
-133.738
-159.49
-185.147
-208.862
-228.554
-242.175
-248.023
-245.061
-0.766045
-2.39197
-4.30414
-6.70818
-9.82863
-13.9096
-19.2079
-25.9768
-34.4377
-44.7398
-56.9096
-70.7948
-86.0133
-101.92
-117.605
-131.947
-143.711
-151.705
-154.962
-152.903
-0.512882
-1.59943
-2.871
-4.45927
-6.50617
-9.16344
-12.5875
-16.9283
-22.3113
-28.8123
-36.4277
-45.0423
-54.4018
-64.0975
-73.5722
-82.1527
-89.1139
-93.7679
-95.5649
-94.1863
-0.336167
-1.04709
-1.87527
-2.9034
-4.21957
-5.9165
-8.08789
-10.8211
-14.186
-18.2198
-22.9093
-28.1733
-33.848
-39.6803
-45.3339
-50.4105
-54.4885
-57.1737
-58.1561
-57.2599
-0.215859
-0.67161
-1.20025
-1.85279
-2.68292
-3.74636
-5.09835
-6.78906
-8.8567
-11.3186
-14.1612
-17.33
-20.7222
-24.1841
-27.516
-30.4852
-32.849
-34.3836
-34.9152
-34.3473
-0.135874
-0.42231
-0.75323
-1.15952
-1.67338
-2.32773
-3.15465
-4.18251
-5.43189
-6.91037
-8.60687
-10.4863
-12.4856
-14.5133
-16.4523
-18.1685
-19.5237
-20.3919
-20.6764
-20.3248
-0.0838856
-0.260474
-0.463726
-0.712025
-1.02435
-1.41986
-1.9169
-2.53128
-3.2739
-4.14777
-5.14487
-6.24325
-7.40515
-8.57686
-9.6909
-10.6709
-11.4391
-11.9251
-12.0757
-11.8625
-0.050821
-0.157663
-0.280209
-0.429218
-0.615693
-0.850614
-1.14432
-1.5055
-1.93982
-2.4483
-3.0255
-3.65809
-4.32386
-4.99185
-5.62368
-6.17643
-6.60675
-6.87588
-6.95467
-6.82786
-0.0302271
-0.0936957
-0.166256
-0.254101
-0.363511
-0.50068
-0.67135
-0.880234
-1.13024
-1.42155
-1.75069
-2.10974
-2.48589
-2.86157
-3.21525
-3.52311
-3.7613
-3.90864
-3.94937
-3.87534
-0.0176572
-0.0546898
-0.096899
-0.147791
-0.210894
-0.289652
-0.387209
-0.506085
-0.647743
-0.812095
-0.997
-1.19786
-1.4074
-1.61581
-1.81119
-1.98049
-2.11072
-2.19046
-2.21125
-2.1688
-0.0101339
-0.0313652
-0.0554956
-0.0844791
-0.120268
-0.164747
-0.219615
-0.2862
-0.365229
-0.456555
-0.558901
-0.669649
-0.784748
-0.898792
-1.0053
-1.09719
-1.16752
-1.21016
-1.22064
-1.19671
-0.00571627
-0.0176802
-0.0312419
-0.047473
-0.0674371
-0.0921517
-0.122521
-0.159237
-0.202653
-0.252641
-0.308461
-0.36865
-0.430988
-0.492541
-0.549823
-0.599062
-0.636557
-0.659087
-0.664301
-0.651039
-0.00317
-0.0097985
-0.0172936
-0.0262341
-0.0371907
-0.0507048
-0.0672512
-0.0871851
-0.110676
-0.137631
-0.167632
-0.199877
-0.233167
-0.265935
-0.296332
-0.322369
-0.342107
-0.353865
-0.356425
-0.349194
-0.00172879
-0.00534056
-0.00941507
-0.0142601
-0.0201775
-0.027451
-0.0363267
-0.0469845
-0.0595038
-0.0738253
-0.0897163
-0.106745
-0.124275
-0.14148
-0.157394
-0.170981
-0.181237
-0.187298
-0.188539
-0.184658
-0.000927429
-0.00286341
-0.0050427
-0.00762653
-0.0107721
-0.0146262
-0.0193144
-0.0249268
-0.0314999
-0.0389977
-0.0472938
-0.0561597
-0.065262
-0.074172
-0.0823908
-0.0893873
-0.0946483
-0.0977334
-0.0983263
-0.0962763
-0.000489531
-0.00151063
-0.00265773
-0.00401401
-0.0056602
-0.00767107
-0.01011
-0.0130214
-0.0164218
-0.0202901
-0.0245592
-0.02911
-0.0337706
-0.0383217
-0.0425093
-0.0460643
-0.0487278
-0.0502784
-0.050558
-0.0494917
-0.0002543
-0.000784357
-0.00137868
-0.00207958
-0.00292788
-0.00396116
-0.00521096
-0.0066989
-0.00843229
-0.0103993
-0.0125649
-0.014868
-0.0172214
-0.0195142
-0.021619
-0.0234014
-0.0247323
-0.0255018
-0.0256318
-0.0250856
-0.00013004
-0.000400909
-0.000704074
-0.00106073
-0.00149125
-0.00201426
-0.00264521
-0.00339453
-0.00426536
-0.00525128
-0.00633429
-0.00748359
-0.00865546
-0.00979484
-0.0108386
-0.0117203
-0.0123766
-0.0127537
-0.0128132
-0.0125376
-6.54719e-05
-0.000201763
-0.000354049
-0.000532794
-0.000748015
-0.00100882
-0.00132268
-0.00169456
-0.00212577
-0.00261291
-0.00314692
-0.00371246
-0.00428799
-0.00484648
-0.00535709
-0.00578749
-0.00610691
-0.00628928
-0.00631619
-0.00617919
-3.24632e-05
-9.99995e-05
-0.000175342
-0.000263584
-0.000369582
-0.000497727
-0.000651591
-0.000833492
-0.00104397
-0.00128128
-0.00154091
-0.00181536
-0.00209414
-0.00236419
-0.00261062
-0.00281793
-0.00297135
-0.00305844
-0.00307043
-0.00300331
-1.58543e-05
-4.88191e-05
-8.5538e-05
-0.000128458
-0.000179901
-0.000241951
-0.000316294
-0.000404002
-0.00050529
-0.000619273
-0.000743753
-0.000875106
-0.00100831
-0.00113712
-0.00125447
-0.001353
-0.00142573
-0.00146678
-0.00147204
-0.00143964
-7.62923e-06
-2.34814e-05
-4.11129e-05
-6.16828e-05
-8.62859e-05
-0.000115901
-0.000151311
-0.000193004
-0.000241064
-0.000295053
-0.000353912
-0.00041592
-0.000478701
-0.000539319
-0.000594454
-0.000640665
-0.000674693
-0.000693799
-0.000696073
-0.000680657
-3.61717e-06
-1.11283e-05
-1.94716e-05
-2.91893e-05
-4.07868e-05
-5.47202e-05
-7.1348e-05
-9.08914e-05
-0.00011338
-0.000138598
-0.000166048
-0.000194923
-0.000224116
-0.00025226
-0.000277823
-0.000299211
-0.000314923
-0.000323703
-0.000324671
-0.000317439
-1.68966e-06
-5.19638e-06
-9.089e-06
-1.36152e-05
-1.90052e-05
-2.54691e-05
-3.3169e-05
-4.22027e-05
-5.25796e-05
-6.41978e-05
-7.68271e-05
-9.00936e-05
-0.000103487
-0.000116382
-0.000128077
-0.000137847
-0.000145011
-0.000148993
-0.000149397
-0.000146053
-7.77915e-07
-2.39219e-06
-4.18282e-06
-6.26161e-06
-8.73393e-06
-1.16919e-05
-1.52081e-05
-1.93273e-05
-2.40525e-05
-2.93333e-05
-3.5067e-05
-4.10838e-05
-4.71484e-05
-5.29799e-05
-5.82625e-05
-6.26696e-05
-6.58932e-05
-6.76757e-05
-6.78429e-05
-6.63169e-05
-3.53213e-07
-1.08691e-06
-1.90057e-06
-2.84417e-06
-3.9631e-06
-5.3009e-06
-6.88807e-06
-8.74426e-06
-1.08698e-05
-1.32432e-05
-1.5815e-05
-1.85111e-05
-2.12265e-05
-2.38326e-05
-2.61914e-05
-2.81569e-05
-2.95916e-05
-3.0381e-05
-3.04481e-05
-2.97615e-05
-1.60089e-07
-4.91618e-07
-8.5923e-07
-1.28546e-06
-1.79063e-06
-2.39388e-06
-3.10692e-06
-3.93769e-06
-4.89009e-06
-5.95346e-06
-7.10203e-06
-8.30499e-06
-9.51625e-06
-1.06772e-05
-1.17262e-05
-1.25986e-05
-1.32349e-05
-1.35829e-05
-1.36086e-05
-1.33023e-05
-7.50471e-08
-2.30054e-07
-4.01494e-07
-6.02579e-07
-8.39071e-07
-1.12113e-06
-1.45402e-06
-1.8384e-06
-2.27937e-06
-2.77454e-06
-3.30428e-06
-3.86061e-06
-4.42117e-06
-4.95768e-06
-5.44134e-06
-5.84216e-06
-6.13387e-06
-6.29464e-06
-6.30413e-06
-6.16132e-06
-4.43845e-08
-1.32137e-07
-2.30562e-07
-3.48131e-07
-4.82639e-07
-6.44931e-07
-8.36699e-07
-1.05557e-06
-1.30646e-06
-1.58734e-06
-1.88871e-06
-2.20669e-06
-2.52636e-06
-2.83045e-06
-3.10522e-06
-3.33036e-06
-3.49621e-06
-3.58702e-06
-3.59176e-06
-3.51112e-06
)
;

boundaryField
{
    topWall
    {
        type            calculated;
        value           nonuniform List<scalar> 
20
(
-4.43845e-08
-1.32137e-07
-2.30562e-07
-3.48131e-07
-4.82639e-07
-6.44931e-07
-8.36699e-07
-1.05557e-06
-1.30646e-06
-1.58734e-06
-1.88871e-06
-2.20669e-06
-2.52636e-06
-2.83045e-06
-3.10522e-06
-3.33036e-06
-3.49621e-06
-3.58702e-06
-3.59176e-06
-3.51112e-06
)
;
    }
    bottomWall
    {
        type            calculated;
        value           nonuniform List<scalar> 
20
(
-1.67564
-5.37298
-10.1772
-17.0689
-27.4438
-43.395
-68.1475
-106.762
-167.318
-262.988
-415.86
-664.437
-1079.49
-1801.05
-3135.43
-5845.99
-12148.7
-29537
-86675.3
-299879
)
;
    }
    sideWallL
    {
        type            symmetry;
    }
    sideWallR
    {
        type            calculated;
        value           nonuniform List<scalar> 
45
(
-468868
-191278
-97597.8
-57171.2
-36065.4
-23630.3
-15776.4
-10620.1
-7162.99
-4821.05
-3228.9
-2147.58
-1416.34
-925.127
-597.924
-382.105
-241.298
-150.503
-92.6803
-56.33
-33.7821
-19.9865
-11.6631
-6.71212
-3.80916
-2.13152
-1.17602
-0.639727
-0.343099
-0.181422
-0.0945831
-0.0486185
-0.0246417
-0.0123152
-0.00606933
-0.00294981
-0.00141395
-0.000668491
-0.000311759
-0.000143437
-6.51278e-05
-2.92283e-05
-1.3066e-05
-6.05326e-06
-3.4521e-06
)
;
    }
    frontAndBack
    {
        type            empty;
    }
}


// ************************************************************************* //
