/*--------------------------------*- C++ -*----------------------------------*\
  =========                 |
  \\      /  F ield         | OpenFOAM: The Open Source CFD Toolbox
   \\    /   O peration     | Website:  https://openfoam.org
    \\  /    A nd           | Version:  7
     \\/     M anipulation  |
\*---------------------------------------------------------------------------*/
FoamFile
{
    version     2.0;
    format      ascii;
    class       volScalarField;
    location    "10";
    object      gradTy;
}
// * * * * * * * * * * * * * * * * * * * * * * * * * * * * * * * * * * * * * //

dimensions      [0 -1 0 1 0 0 0];

internalField   nonuniform List<scalar> 
900
(
-105772
-105778
-105793
-105818
-105859
-105924
-106026
-106185
-106435
-106825
-107436
-108400
-109933
-112412
-116510
-123519
-136113
-160397
-211930
-334964
-86415.2
-86421
-86433.7
-86455.9
-86492.1
-86549.2
-86638.4
-86776.7
-86990.6
-87320.4
-87828.6
-88611.5
-89818.7
-91682.1
-94554.8
-98940.7
-105393
-113713
-118899
-92817.4
-69945.4
-69950
-69960.2
-69977.8
-70006.2
-70050.6
-70118.9
-70222.8
-70379.6
-70614.4
-70962.2
-71470.5
-72199
-73208.7
-74521.9
-75994.5
-76955.3
-75254.5
-65067.1
-33526.8
-56042.1
-56045.4
-56052.3
-56064.3
-56083.2
-56112
-56155
-56218
-56308.4
-56435
-56606
-56824.2
-57074.7
-57296.8
-57321.6
-56742.1
-54659
-49260
-37406.8
-15383.1
-44414.5
-44416.2
-44419.8
-44425.7
-44434.7
-44447.5
-44465
-44487.5
-44513.8
-44539.5
-44552.4
-44524.6
-44397.6
-44053.9
-43268
-41626.7
-38422.2
-32571.6
-22771.1
-8385.23
-34792
-34792.3
-34792.7
-34793.1
-34793
-34791.5
-34786.6
-34774.4
-34747.8
-34693.4
-34587.1
-34386.1
-34016.1
-33351.2
-32185.4
-30199.2
-26938.7
-21856.3
-14515
-5072.25
-26921.4
-26920.4
-26918.2
-26914
-26906.6
-26893.8
-26871.7
-26833.8
-26769.6
-26661.5
-26480.7
-26181.5
-25692.2
-24903.6
-23656.8
-21736.5
-18883.3
-14853
-9552.39
-3252.56
-20564.6
-20562.8
-20558.7
-20551.2
-20538.7
-20518.2
-20484.8
-20431.1
-20345.1
-20208.6
-19993.5
-19658.2
-19142.5
-18361.9
-17205.7
-15540.5
-13230
-10180.1
-6413.43
-2153.35
-15499.8
-15497.4
-15492.1
-15482.7
-15467.3
-15442.6
-15403.7
-15342.9
-15248.8
-15104.6
-14885.7
-14558.1
-14075
-13376.2
-12389.1
-11036.1
-9250.85
-7006.71
-4353.98
-1449.75
-11521.5
-11518.9
-11513.1
-11503
-11486.6
-11460.8
-11420.9
-11360.1
-11268.1
-11130.7
-10928.2
-10634.2
-10214.7
-9629.02
-8831.8
-7779.96
-6444.08
-4824.7
-2969.68
-983.522
-8443.15
-8440.52
-8434.78
-8424.85
-8408.96
-8384.32
-8346.84
-8290.6
-8207.28
-8085.5
-7910.13
-7661.83
-7317.07
-6849.19
-6230.97
-5439.62
-4463.97
-3313.4
-2025.57
-668.368
-6097.63
-6095.2
-6089.9
-6080.82
-6066.42
-6044.37
-6011.27
-5962.37
-5891.12
-5788.88
-5644.54
-5444.46
-5172.86
-4812.86
-4348.61
-3768.63
-3070.17
-2263.85
-1376.96
-453.138
-4338.68
-4336.55
-4331.94
-4324.07
-4311.7
-4292.96
-4265.17
-4224.66
-4166.5
-4084.35
-3970.35
-3815.17
-3608.51
-3339.96
-3000.53
-2584.83
-2093.53
-1535.8
-930.539
-305.614
-3040.85
-3039.07
-3035.22
-3028.71
-3018.55
-3003.3
-2980.94
-2948.71
-2903.05
-2839.45
-2752.49
-2635.98
-2483.33
-2288.26
-2045.83
-1753.72
-1413.73
-1032.89
-623.95
-204.605
-2098.89
-2097.46
-2094.39
-2089.2
-2081.17
-2069.22
-2051.87
-2027.12
-1992.47
-1944.8
-1880.46
-1795.43
-1685.59
-1547.22
-1377.67
-1176.13
-944.483
-687.799
-414.497
-135.755
-1426.53
-1425.42
-1423.04
-1419.06
-1412.93
-1403.87
-1390.83
-1372.42
-1346.9
-1312.18
-1265.87
-1205.38
-1128.2
-1032.15
-915.86
-779.206
-623.753
-453.025
-272.487
-89.1567
-954.592
-953.76
-951.98
-949.011
-944.47
-937.812
-928.3
-914.987
-896.706
-872.076
-839.554
-797.528
-744.466
-679.129
-600.831
-509.705
-406.941
-294.907
-177.102
-57.9006
-628.876
-628.27
-626.976
-624.827
-621.559
-616.797
-610.044
-600.667
-587.898
-570.845
-548.532
-519.964
-484.228
-440.628
-388.836
-329.053
-262.127
-189.613
-113.72
-37.1543
-407.847
-407.418
-406.502
-404.989
-402.698
-399.38
-394.705
-388.26
-379.549
-368.008
-353.029
-334.008
-310.407
-281.842
-248.168
-209.571
-166.632
-120.349
-72.1002
-23.5432
-260.376
-260.079
-259.449
-258.409
-256.842
-254.585
-251.425
-247.096
-241.286
-233.642
-223.792
-211.375
-196.08
-177.695
-156.166
-131.639
-104.499
-75.3743
-45.1144
-14.7246
-163.633
-163.432
-163.008
-162.31
-161.264
-159.764
-157.675
-154.831
-151.037
-146.077
-139.727
-131.774
-122.04
-110.412
-96.8732
-81.5304
-64.6311
-46.5655
-27.8492
-9.08588
-101.229
-101.097
-100.818
-100.36
-99.677
-98.7019
-97.3505
-95.5204
-93.0928
-89.9376
-85.9219
-80.9213
-74.8352
-67.6043
-59.2279
-49.7792
-39.4136
-28.3692
-16.9551
-5.52976
-61.6471
-61.562
-61.3824
-61.089
-60.6521
-60.0313
-59.175
-58.021
-56.498
-54.5289
-52.0359
-48.9476
-45.2077
-40.7858
-35.6863
-29.9572
-23.6943
-17.0403
-10.1783
-3.31859
-36.9579
-36.9042
-36.7911
-36.6067
-36.3332
-35.9459
-35.414
-34.7004
-33.7629
-32.5567
-31.0367
-29.1625
-26.9032
-24.2432
-21.1879
-17.7676
-14.0401
-10.0898
-6.02364
-1.96348
-21.8125
-21.7794
-21.7095
-21.596
-21.4281
-21.1912
-20.8672
-20.4341
-19.8677
-19.1421
-18.2315
-17.1136
-15.7713
-14.1971
-12.3953
-10.3846
-8.19933
-5.88857
-3.51391
-1.14515
-12.6745
-12.6544
-12.6122
-12.5437
-12.4426
-12.3004
-12.1066
-11.8487
-11.5126
-11.0837
-10.5476
-9.89189
-9.10752
-8.19075
-7.14475
-5.9808
-4.71883
-3.38701
-2.02035
-0.658285
-7.25122
-7.23927
-7.21421
-7.17362
-7.11389
-7.03016
-6.91639
-6.76547
-6.56954
-6.32038
-6.01009
-5.63184
-5.18088
-4.65543
-4.05761
-3.39405
-2.67618
-1.91989
-1.14481
-0.372948
-4.08482
-4.07786
-4.06326
-4.03966
-4.00501
-3.95658
-3.89097
-3.80422
-3.69196
-3.54966
-3.37303
-3.1584
-2.90326
-2.60681
-2.2704
-1.89785
-1.49558
-1.07244
-0.639287
-0.208231
-2.26596
-2.26197
-2.25362
-2.24015
-2.22041
-2.19289
-2.15571
-2.10669
-2.04346
-1.96354
-1.86464
-1.7448
-1.60274
-1.43809
-1.25167
-1.04566
-0.823593
-0.590338
-0.351805
-0.114576
-1.2379
-1.23565
-1.23096
-1.2234
-1.21235
-1.19698
-1.17627
-1.14905
-1.11402
-1.06987
-1.01538
-0.949533
-0.871665
-0.781628
-0.679902
-0.567686
-0.44692
-0.320228
-0.190789
-0.0621289
-0.66605
-0.664811
-0.66222
-0.658054
-0.651974
-0.643536
-0.632194
-0.61732
-0.598231
-0.574238
-0.544696
-0.50908
-0.46706
-0.418576
-0.363902
-0.303691
-0.238985
-0.171182
-0.101966
-0.0332009
-0.35299
-0.352316
-0.350911
-0.348652
-0.345364
-0.340808
-0.334699
-0.326705
-0.316471
-0.303637
-0.287872
-0.268908
-0.246581
-0.220868
-0.191923
-0.160096
-0.125937
-0.0901799
-0.0537054
-0.0174853
-0.184286
-0.183926
-0.183176
-0.181973
-0.180223
-0.177804
-0.174566
-0.170339
-0.164939
-0.158183
-0.1499
-0.139958
-0.128274
-0.114842
-0.099747
-0.0831718
-0.065403
-0.0468206
-0.0278782
-0.00907582
-0.0947855
-0.0945967
-0.0942029
-0.093572
-0.0926561
-0.0913922
-0.0897038
-0.0875039
-0.0846994
-0.0811974
-0.076913
-0.0717794
-0.0657574
-0.058846
-0.0510897
-0.042584
-0.0334758
-0.0239587
-0.0142633
-0.00464309
-0.0480351
-0.0479375
-0.0477342
-0.0474088
-0.046937
-0.0462871
-0.0454205
-0.0442935
-0.0428594
-0.0410721
-0.0388894
-0.0362787
-0.0332212
-0.0297174
-0.0257906
-0.0214894
-0.0168882
-0.0120841
-0.00719295
-0.00234135
-0.0239877
-0.0239381
-0.0238348
-0.0236696
-0.0234305
-0.0231015
-0.0226636
-0.0220951
-0.021373
-0.0204746
-0.0193794
-0.0180715
-0.0165421
-0.0147918
-0.0128327
-0.0106892
-0.0083982
-0.00600799
-0.0035757
-0.00116384
-0.0118055
-0.0117807
-0.011729
-0.0116464
-0.0115271
-0.0113631
-0.0111453
-0.0108629
-0.0105048
-0.0100599
-0.00951854
-0.00887295
-0.0081191
-0.00725751
-0.00629423
-0.00524134
-0.00411697
-0.00294468
-0.00175233
-0.00057033
-0.00572654
-0.0057143
-0.00568885
-0.00564823
-0.00558958
-0.00550912
-0.00540235
-0.00526417
-0.00508924
-0.00487226
-0.00460856
-0.00429456
-0.00392838
-0.00351037
-0.00304352
-0.00253372
-0.00198974
-0.00142292
-0.000846655
-0.000275548
-0.00273817
-0.00273223
-0.00271988
-0.0027002
-0.00267181
-0.00263292
-0.00258138
-0.00251478
-0.00243058
-0.0023263
-0.00219973
-0.00204921
-0.0018739
-0.001674
-0.00145096
-0.00120762
-0.000948146
-0.000677939
-0.00040334
-0.000131264
-0.00129067
-0.00128783
-0.00128194
-0.00127255
-0.00125901
-0.00124049
-0.00121598
-0.00118435
-0.00114442
-0.00109502
-0.00103515
-0.000964044
-0.000881314
-0.000787077
-0.000682033
-0.000567517
-0.000445492
-0.000318486
-0.000189465
-6.16579e-05
-0.000599636
-0.0005983
-0.000595527
-0.000591112
-0.000584756
-0.000576069
-0.000564587
-0.000549789
-0.000531129
-0.000508079
-0.000480174
-0.000447067
-0.000408591
-0.000364806
-0.000316042
-0.00026292
-0.000206351
-0.000147501
-8.77396e-05
-2.85521e-05
-0.000274189
-0.000273571
-0.000272289
-0.000270248
-0.000267312
-0.000263305
-0.000258014
-0.000251204
-0.000242625
-0.000232041
-0.000219245
-0.000204077
-0.000186466
-0.000166444
-0.000144163
-0.000119908
-9.40918e-05
-6.72497e-05
-3.99996e-05
-1.30152e-05
-0.000122386
-0.000122109
-0.000121529
-0.00012061
-0.000119288
-0.000117485
-0.000115108
-0.000112052
-0.000108202
-0.000103461
-9.77339e-05
-9.095e-05
-8.30833e-05
-7.41452e-05
-6.4208e-05
-5.33953e-05
-4.18931e-05
-2.9938e-05
-1.78062e-05
-5.79371e-06
-5.08902e-05
-5.07744e-05
-5.05304e-05
-5.01455e-05
-4.95931e-05
-4.88375e-05
-4.7844e-05
-4.65677e-05
-4.4962e-05
-4.2984e-05
-4.05959e-05
-3.77707e-05
-3.44971e-05
-3.07807e-05
-2.6651e-05
-2.21592e-05
-1.73835e-05
-1.24204e-05
-7.38731e-06
-2.40371e-06
-1.3797e-05
-1.3766e-05
-1.36996e-05
-1.35954e-05
-1.34446e-05
-1.3239e-05
-1.29686e-05
-1.26211e-05
-1.21861e-05
-1.16484e-05
-1.09987e-05
-1.02327e-05
-9.34531e-06
-8.33751e-06
-7.21791e-06
-6.00123e-06
-4.70662e-06
-3.36306e-06
-1.99984e-06
-6.50182e-07
)
;

boundaryField
{
    topWall
    {
        type            calculated;
        value           uniform 0;
    }
    bottomWall
    {
        type            calculated;
        value           nonuniform List<scalar> 
20
(
-116214
-116221
-116236
-116262
-116304
-116371
-116478
-116644
-116905
-117313
-117957
-118977
-120614
-123295
-127819
-135836
-151203
-184431
-269351
-531132
)
;
    }
    sideWallL
    {
        type            symmetry;
    }
    sideWallR
    {
        type            calculated;
        value           nonuniform List<scalar> 
45
(
-334964
-92817.4
-33526.8
-15383.1
-8385.23
-5072.25
-3252.56
-2153.35
-1449.75
-983.522
-668.368
-453.138
-305.614
-204.605
-135.755
-89.1567
-57.9006
-37.1543
-23.5432
-14.7246
-9.08588
-5.52976
-3.31859
-1.96348
-1.14515
-0.658285
-0.372948
-0.208231
-0.114576
-0.0621289
-0.0332009
-0.0174853
-0.00907582
-0.00464309
-0.00234135
-0.00116384
-0.00057033
-0.000275548
-0.000131264
-6.16579e-05
-2.85521e-05
-1.30152e-05
-5.79371e-06
-2.40371e-06
-6.50182e-07
)
;
    }
    frontAndBack
    {
        type            empty;
    }
}


// ************************************************************************* //
