/*--------------------------------*- C++ -*----------------------------------*\
  =========                 |
  \\      /  F ield         | OpenFOAM: The Open Source CFD Toolbox
   \\    /   O peration     | Website:  https://openfoam.org
    \\  /    A nd           | Version:  7
     \\/     M anipulation  |
\*---------------------------------------------------------------------------*/
FoamFile
{
    version     2.0;
    format      ascii;
    class       volScalarField;
    location    "10";
    object      rhoc;
}
// * * * * * * * * * * * * * * * * * * * * * * * * * * * * * * * * * * * * * //

dimensions      [1 -3 0 0 0 0 0];

internalField   nonuniform List<scalar> 
900
(
1.69847e-20
1.69827e-20
1.69783e-20
1.69705e-20
1.69576e-20
1.69366e-20
1.69029e-20
1.68493e-20
1.6764e-20
1.66286e-20
1.64138e-20
1.6073e-20
1.55317e-20
1.46711e-20
1.33048e-20
1.11569e-20
7.91518e-21
3.70822e-21
4.98658e-22
6.04151e-25
1.50735e-22
1.50681e-22
1.50559e-22
1.50343e-22
1.49985e-22
1.49406e-22
1.48484e-22
1.47025e-22
1.44731e-22
1.41153e-22
1.35628e-22
1.27223e-22
1.14727e-22
9.68588e-23
7.29951e-23
4.48756e-23
1.87886e-23
3.65184e-24
1.42344e-25
2.30957e-28
2.33002e-24
2.32863e-24
2.32553e-24
2.32005e-24
2.31099e-24
2.29644e-24
2.27337e-24
2.23721e-24
2.18114e-24
2.09537e-24
1.96671e-24
1.77913e-24
1.51746e-24
1.17707e-24
7.81895e-25
4.01674e-25
1.34123e-25
2.18297e-26
1.15409e-27
1.79559e-29
6.57162e-26
6.56651e-26
6.55516e-26
6.53513e-26
6.50214e-26
6.4494e-26
6.36639e-26
6.23751e-26
6.04025e-26
5.74404e-26
5.3108e-26
4.701e-26
3.89032e-26
2.9017e-26
1.84454e-26
9.18937e-27
3.18598e-27
6.66024e-28
7.75111e-29
6.70245e-30
3.45193e-27
3.44894e-27
3.4423e-27
3.4306e-27
3.41141e-27
3.38087e-27
3.33314e-27
3.25966e-27
3.14846e-27
2.98388e-27
2.74759e-27
2.42262e-27
2.0023e-27
1.50465e-27
9.85614e-28
5.32983e-28
2.24058e-28
7.04151e-29
1.73864e-29
4.23207e-30
3.37476e-28
3.37189e-28
3.36554e-28
3.35438e-28
3.33613e-28
3.30722e-28
3.2623e-28
3.19362e-28
3.09057e-28
2.93954e-28
2.72506e-28
2.43321e-28
2.05879e-28
1.61564e-28
1.14541e-28
7.13371e-29
3.8241e-29
1.77493e-29
7.55849e-30
3.31713e-30
5.99349e-29
5.98907e-29
5.97932e-29
5.96222e-29
5.93436e-29
5.89041e-29
5.82244e-29
5.7191e-29
5.56495e-29
5.34032e-29
5.02275e-29
4.59122e-29
4.03471e-29
3.36447e-29
2.62522e-29
1.89446e-29
1.26007e-29
7.82632e-30
4.7037e-30
2.8865e-30
1.81109e-29
1.81005e-29
1.80777e-29
1.80377e-29
1.79728e-29
1.78708e-29
1.77138e-29
1.74762e-29
1.71233e-29
1.66109e-29
1.58873e-29
1.49012e-29
1.36161e-29
1.20331e-29
1.0214e-29
8.2899e-30
6.43866e-30
4.82968e-30
3.56508e-30
2.65692e-30
8.31911e-30
8.31568e-30
8.30811e-30
8.29493e-30
8.27359e-30
8.24021e-30
8.18904e-30
8.11198e-30
7.99805e-30
7.83317e-30
7.6006e-30
7.28275e-30
6.86476e-30
6.34021e-30
5.71771e-30
5.02545e-30
4.30972e-30
3.62533e-30
3.02076e-30
2.52573e-30
5.1129e-30
5.11143e-30
5.1082e-30
5.10258e-30
5.09353e-30
5.07943e-30
5.05794e-30
5.02575e-30
4.97841e-30
4.9102e-30
4.81426e-30
4.68311e-30
4.50983e-30
4.28987e-30
4.02343e-30
3.71748e-30
3.38643e-30
3.05043e-30
2.73132e-30
2.44771e-30
3.78562e-30
3.78487e-30
3.78322e-30
3.78037e-30
3.7758e-30
3.76871e-30
3.75798e-30
3.74201e-30
3.71866e-30
3.68523e-30
3.63842e-30
3.57461e-30
3.49029e-30
3.38274e-30
3.25106e-30
3.09708e-30
2.92598e-30
2.74601e-30
2.56737e-30
2.40027e-30
3.14426e-30
3.14383e-30
3.14289e-30
3.14127e-30
3.13869e-30
3.13471e-30
3.12872e-30
3.11986e-30
3.10702e-30
3.08875e-30
3.06334e-30
3.02889e-30
2.98349e-30
2.9256e-30
2.85446e-30
2.77055e-30
2.67597e-30
2.57445e-30
2.47099e-30
2.3711e-30
2.80231e-30
2.80204e-30
2.80147e-30
2.80048e-30
2.79892e-30
2.79652e-30
2.79295e-30
2.7877e-30
2.78015e-30
2.76949e-30
2.75477e-30
2.73495e-30
2.70898e-30
2.67597e-30
2.63544e-30
2.58752e-30
2.53315e-30
2.47416e-30
2.41314e-30
2.35307e-30
2.60857e-30
2.60841e-30
2.60804e-30
2.60742e-30
2.60643e-30
2.60494e-30
2.60272e-30
2.59949e-30
2.59488e-30
2.58842e-30
2.57958e-30
2.56777e-30
2.55238e-30
2.53294e-30
2.50916e-30
2.48107e-30
2.44915e-30
2.41436e-30
2.37807e-30
2.34194e-30
2.49482e-30
2.49471e-30
2.49447e-30
2.49407e-30
2.49344e-30
2.49249e-30
2.49108e-30
2.48906e-30
2.48619e-30
2.48221e-30
2.4768e-30
2.46963e-30
2.46037e-30
2.44873e-30
2.43457e-30
2.4179e-30
2.39899e-30
2.37835e-30
2.35674e-30
2.33509e-30
2.42673e-30
2.42666e-30
2.4265e-30
2.42624e-30
2.42584e-30
2.42523e-30
2.42433e-30
2.42306e-30
2.42126e-30
2.41879e-30
2.41547e-30
2.41109e-30
2.40548e-30
2.39848e-30
2.39001e-30
2.38008e-30
2.36886e-30
2.35662e-30
2.3438e-30
2.33091e-30
2.38564e-30
2.38559e-30
2.38549e-30
2.38532e-30
2.38506e-30
2.38468e-30
2.38411e-30
2.38331e-30
2.38219e-30
2.38066e-30
2.37862e-30
2.37595e-30
2.37256e-30
2.36835e-30
2.3633e-30
2.35741e-30
2.35077e-30
2.34354e-30
2.33598e-30
2.32837e-30
2.36083e-30
2.3608e-30
2.36073e-30
2.36063e-30
2.36046e-30
2.36022e-30
2.35986e-30
2.35936e-30
2.35867e-30
2.35773e-30
2.35648e-30
2.35487e-30
2.35283e-30
2.35032e-30
2.34733e-30
2.34385e-30
2.33995e-30
2.33572e-30
2.3313e-30
2.32684e-30
2.34591e-30
2.34589e-30
2.34585e-30
2.34579e-30
2.34568e-30
2.34553e-30
2.34531e-30
2.345e-30
2.34458e-30
2.34401e-30
2.34326e-30
2.34229e-30
2.34108e-30
2.33959e-30
2.33783e-30
2.3358e-30
2.33353e-30
2.33108e-30
2.32851e-30
2.32594e-30
2.33702e-30
2.33701e-30
2.33698e-30
2.33694e-30
2.33687e-30
2.33678e-30
2.33665e-30
2.33646e-30
2.3362e-30
2.33586e-30
2.33541e-30
2.33484e-30
2.33413e-30
2.33326e-30
2.33224e-30
2.33106e-30
2.32975e-30
2.32835e-30
2.32688e-30
2.3254e-30
2.33176e-30
2.33176e-30
2.33174e-30
2.33172e-30
2.33168e-30
2.33162e-30
2.33154e-30
2.33143e-30
2.33127e-30
2.33107e-30
2.33081e-30
2.33048e-30
2.33006e-30
2.32956e-30
2.32897e-30
2.3283e-30
2.32756e-30
2.32676e-30
2.32593e-30
2.32509e-30
2.3287e-30
2.32869e-30
2.32868e-30
2.32867e-30
2.32865e-30
2.32861e-30
2.32856e-30
2.3285e-30
2.32841e-30
2.32829e-30
2.32814e-30
2.32795e-30
2.32771e-30
2.32742e-30
2.32709e-30
2.32671e-30
2.32629e-30
2.32585e-30
2.32538e-30
2.32491e-30
2.32693e-30
2.32693e-30
2.32692e-30
2.32691e-30
2.3269e-30
2.32688e-30
2.32685e-30
2.32681e-30
2.32676e-30
2.32669e-30
2.32661e-30
2.3265e-30
2.32637e-30
2.32621e-30
2.32602e-30
2.32581e-30
2.32558e-30
2.32533e-30
2.32507e-30
2.32481e-30
2.32593e-30
2.32592e-30
2.32592e-30
2.32592e-30
2.32591e-30
2.3259e-30
2.32588e-30
2.32586e-30
2.32583e-30
2.32579e-30
2.32574e-30
2.32568e-30
2.32561e-30
2.32552e-30
2.32542e-30
2.3253e-30
2.32517e-30
2.32504e-30
2.3249e-30
2.32476e-30
2.32536e-30
2.32536e-30
2.32536e-30
2.32536e-30
2.32535e-30
2.32534e-30
2.32534e-30
2.32532e-30
2.32531e-30
2.32529e-30
2.32526e-30
2.32523e-30
2.32518e-30
2.32514e-30
2.32508e-30
2.32502e-30
2.32495e-30
2.32488e-30
2.3248e-30
2.32472e-30
2.32505e-30
2.32505e-30
2.32505e-30
2.32505e-30
2.32504e-30
2.32504e-30
2.32504e-30
2.32503e-30
2.32502e-30
2.32501e-30
2.32499e-30
2.32497e-30
2.32495e-30
2.32493e-30
2.3249e-30
2.32486e-30
2.32483e-30
2.32479e-30
2.32475e-30
2.32471e-30
2.32488e-30
2.32488e-30
2.32488e-30
2.32488e-30
2.32488e-30
2.32487e-30
2.32487e-30
2.32487e-30
2.32486e-30
2.32486e-30
2.32485e-30
2.32484e-30
2.32483e-30
2.32481e-30
2.3248e-30
2.32478e-30
2.32476e-30
2.32474e-30
2.32472e-30
2.3247e-30
2.32479e-30
2.32479e-30
2.32479e-30
2.32479e-30
2.32479e-30
2.32478e-30
2.32478e-30
2.32478e-30
2.32478e-30
2.32478e-30
2.32477e-30
2.32477e-30
2.32476e-30
2.32475e-30
2.32474e-30
2.32474e-30
2.32472e-30
2.32471e-30
2.3247e-30
2.32469e-30
2.32474e-30
2.32474e-30
2.32474e-30
2.32474e-30
2.32474e-30
2.32474e-30
2.32474e-30
2.32474e-30
2.32473e-30
2.32473e-30
2.32473e-30
2.32473e-30
2.32472e-30
2.32472e-30
2.32472e-30
2.32471e-30
2.32471e-30
2.3247e-30
2.3247e-30
2.32469e-30
2.32471e-30
2.32471e-30
2.32471e-30
2.32471e-30
2.32471e-30
2.32471e-30
2.32471e-30
2.32471e-30
2.32471e-30
2.32471e-30
2.32471e-30
2.32471e-30
2.32471e-30
2.3247e-30
2.3247e-30
2.3247e-30
2.3247e-30
2.32469e-30
2.32469e-30
2.32469e-30
2.3247e-30
2.3247e-30
2.3247e-30
2.3247e-30
2.3247e-30
2.3247e-30
2.3247e-30
2.3247e-30
2.3247e-30
2.3247e-30
2.3247e-30
2.3247e-30
2.3247e-30
2.3247e-30
2.32469e-30
2.32469e-30
2.32469e-30
2.32469e-30
2.32469e-30
2.32469e-30
2.32469e-30
2.32469e-30
2.32469e-30
2.32469e-30
2.32469e-30
2.32469e-30
2.32469e-30
2.32469e-30
2.32469e-30
2.32469e-30
2.32469e-30
2.32469e-30
2.32469e-30
2.32469e-30
2.32469e-30
2.32469e-30
2.32469e-30
2.32469e-30
2.32469e-30
2.32469e-30
2.32469e-30
2.32469e-30
2.32469e-30
2.32469e-30
2.32469e-30
2.32469e-30
2.32469e-30
2.32469e-30
2.32469e-30
2.32469e-30
2.32469e-30
2.32469e-30
2.32469e-30
2.32469e-30
2.32469e-30
2.32469e-30
2.32469e-30
2.32469e-30
2.32469e-30
2.32469e-30
2.32469e-30
2.32469e-30
2.32469e-30
2.32469e-30
2.32469e-30
2.32469e-30
2.32469e-30
2.32469e-30
2.32469e-30
2.32469e-30
2.32469e-30
2.32469e-30
2.32469e-30
2.32469e-30
2.32469e-30
2.32469e-30
2.32469e-30
2.32469e-30
2.32469e-30
2.32469e-30
2.32469e-30
2.32469e-30
2.32469e-30
2.32469e-30
2.32469e-30
2.32469e-30
2.32469e-30
2.32469e-30
2.32469e-30
2.32469e-30
2.32469e-30
2.32469e-30
2.32469e-30
2.32469e-30
2.32469e-30
2.32469e-30
2.32469e-30
2.32469e-30
2.32469e-30
2.32469e-30
2.32469e-30
2.32469e-30
2.32469e-30
2.32469e-30
2.32469e-30
2.32469e-30
2.32469e-30
2.32469e-30
2.32469e-30
2.32469e-30
2.32469e-30
2.32469e-30
2.32469e-30
2.32469e-30
2.32469e-30
2.32469e-30
2.32469e-30
2.32469e-30
2.32469e-30
2.32469e-30
2.32469e-30
2.32469e-30
2.32469e-30
2.32469e-30
2.32469e-30
2.32469e-30
2.32469e-30
2.32469e-30
2.32469e-30
2.32469e-30
2.32469e-30
2.32469e-30
2.32469e-30
2.32469e-30
2.32469e-30
2.32469e-30
2.32469e-30
2.32469e-30
2.32469e-30
2.32469e-30
2.32469e-30
2.32469e-30
2.32469e-30
2.32469e-30
2.32469e-30
2.32469e-30
2.32469e-30
2.32469e-30
2.32469e-30
2.32469e-30
2.32469e-30
2.32469e-30
2.32469e-30
2.32469e-30
2.32469e-30
2.32469e-30
2.32469e-30
2.32469e-30
2.32469e-30
2.32469e-30
2.32469e-30
2.32469e-30
2.32469e-30
2.32469e-30
2.32469e-30
2.32469e-30
2.32469e-30
2.32469e-30
2.32469e-30
2.32469e-30
2.32469e-30
2.32469e-30
2.32469e-30
2.32469e-30
2.32469e-30
2.32469e-30
2.32469e-30
2.32469e-30
2.32469e-30
2.32469e-30
2.32469e-30
2.32469e-30
2.32469e-30
2.32469e-30
2.32469e-30
2.32469e-30
2.32469e-30
2.32469e-30
2.32469e-30
2.32469e-30
2.32469e-30
2.32469e-30
2.32469e-30
2.32469e-30
2.32469e-30
2.32469e-30
2.32469e-30
2.32469e-30
2.32469e-30
2.32469e-30
2.32469e-30
2.32469e-30
2.32469e-30
2.32469e-30
2.32469e-30
2.32469e-30
2.32469e-30
2.32469e-30
2.32469e-30
2.32469e-30
2.32469e-30
2.32469e-30
2.32469e-30
2.32469e-30
2.32469e-30
2.32469e-30
2.32469e-30
2.32469e-30
2.32469e-30
2.32469e-30
2.32469e-30
2.32469e-30
2.32469e-30
2.32469e-30
2.32469e-30
2.32469e-30
2.32469e-30
2.32469e-30
2.32469e-30
2.32469e-30
2.32469e-30
2.32469e-30
2.32469e-30
2.32469e-30
2.32469e-30
2.32469e-30
2.32469e-30
2.32469e-30
2.32469e-30
2.32469e-30
2.32469e-30
2.32469e-30
2.32469e-30
2.32469e-30
2.32469e-30
2.32469e-30
2.32469e-30
2.32469e-30
2.32469e-30
2.32469e-30
2.32469e-30
2.32469e-30
2.32469e-30
2.32469e-30
2.32469e-30
2.32469e-30
2.32469e-30
2.32469e-30
2.32469e-30
2.32469e-30
2.32469e-30
2.32469e-30
2.32469e-30
2.32469e-30
2.32469e-30
2.32469e-30
2.32469e-30
2.32469e-30
2.32469e-30
2.32469e-30
2.32469e-30
2.32469e-30
2.32469e-30
2.32469e-30
2.32469e-30
2.32469e-30
2.32469e-30
2.32469e-30
2.32469e-30
2.32469e-30
2.32469e-30
2.32469e-30
2.32469e-30
2.32469e-30
2.32469e-30
2.32469e-30
2.32469e-30
2.32469e-30
2.32469e-30
2.32469e-30
2.32469e-30
2.32469e-30
2.32469e-30
2.32469e-30
2.32469e-30
2.32469e-30
2.32469e-30
2.32469e-30
2.32469e-30
2.32469e-30
)
;

boundaryField
{
    topWall
    {
        type            zeroGradient;
    }
    bottomWall
    {
        type            zeroGradient;
    }
    sideWallL
    {
        type            symmetry;
    }
    sideWallR
    {
        type            zeroGradient;
    }
    frontAndBack
    {
        type            empty;
    }
}


// ************************************************************************* //
