/*--------------------------------*- C++ -*----------------------------------*\
  =========                 |
  \\      /  F ield         | OpenFOAM: The Open Source CFD Toolbox
   \\    /   O peration     | Website:  https://openfoam.org
    \\  /    A nd           | Version:  7
     \\/     M anipulation  |
\*---------------------------------------------------------------------------*/
FoamFile
{
    version     2.0;
    format      ascii;
    class       volScalarField;
    location    "10";
    object      rhog;
}
// * * * * * * * * * * * * * * * * * * * * * * * * * * * * * * * * * * * * * //

dimensions      [1 -3 0 0 0 0 0];

internalField   nonuniform List<scalar> 
900
(
2.70215e-10
2.70195e-10
2.70152e-10
2.70076e-10
2.69949e-10
2.69744e-10
2.69417e-10
2.68896e-10
2.68068e-10
2.66754e-10
2.64665e-10
2.61338e-10
2.56007e-10
2.47396e-10
2.33325e-10
2.10011e-10
1.71093e-10
1.08841e-10
3.28601e-11
5.83513e-13
1.65031e-11
1.64994e-11
1.64911e-11
1.64764e-11
1.64521e-11
1.6413e-11
1.63506e-11
1.62519e-11
1.60964e-11
1.58526e-11
1.54723e-11
1.48834e-11
1.39808e-11
1.26222e-11
1.06437e-11
7.94185e-12
4.70416e-12
1.75522e-12
2.47359e-13
4.84166e-15
1.38198e-12
1.38146e-12
1.38031e-12
1.37827e-12
1.37492e-12
1.36953e-12
1.36099e-12
1.34757e-12
1.32667e-12
1.29438e-12
1.24512e-12
1.17117e-12
1.06297e-12
9.10825e-13
7.10497e-13
4.74305e-13
2.43756e-13
8.07807e-14
1.33292e-14
9.81889e-16
1.63438e-13
1.63357e-13
1.63179e-13
1.62863e-13
1.62345e-13
1.61517e-13
1.60212e-13
1.58181e-13
1.55051e-13
1.50292e-13
1.43181e-13
1.32809e-13
1.18213e-13
9.87378e-14
7.47822e-14
4.87742e-14
2.54379e-14
9.67168e-15
2.51754e-15
5.25423e-16
2.76454e-14
2.76299e-14
2.75957e-14
2.75355e-14
2.74369e-14
2.72801e-14
2.70348e-14
2.6656e-14
2.60787e-14
2.52131e-14
2.39425e-14
2.21306e-14
1.96502e-14
1.64459e-14
1.26362e-14
8.61119e-15
5.00356e-15
2.40739e-15
9.81388e-16
3.91635e-16
6.67954e-15
6.67579e-15
6.6675e-15
6.65298e-15
6.62927e-15
6.59176e-15
6.53346e-15
6.44412e-15
6.30928e-15
6.10941e-15
5.82e-15
5.41368e-15
4.86645e-15
4.16991e-15
3.34847e-15
2.47338e-15
1.65593e-15
1.006e-15
5.74845e-16
3.3496e-16
2.27292e-15
2.27178e-15
2.26926e-15
2.26486e-15
2.25771e-15
2.24645e-15
2.22904e-15
2.20255e-15
2.1629e-15
2.10467e-15
2.02117e-15
1.90507e-15
1.74994e-15
1.55309e-15
1.31936e-15
1.06415e-15
8.12597e-16
5.92315e-16
4.2238e-16
3.06287e-16
1.05431e-15
1.05388e-15
1.05295e-15
1.05131e-15
1.04867e-15
1.04452e-15
1.03815e-15
1.02852e-15
1.01421e-15
9.93334e-16
9.63623e-16
9.22559e-16
8.67857e-16
7.98263e-16
7.1461e-16
6.20732e-16
5.23527e-16
4.31547e-16
3.52399e-16
2.90339e-16
6.3053e-16
6.30343e-16
6.2993e-16
6.29211e-16
6.28053e-16
6.26245e-16
6.23483e-16
6.19331e-16
6.132e-16
6.04319e-16
5.91752e-16
5.7446e-16
5.51459e-16
5.22089e-16
4.86373e-16
4.4536e-16
4.01246e-16
3.57098e-16
3.16156e-16
2.80984e-16
4.5412e-16
4.54025e-16
4.53817e-16
4.53456e-16
4.52876e-16
4.51975e-16
4.50606e-16
4.48562e-16
4.45561e-16
4.41243e-16
4.35169e-16
4.26848e-16
4.158e-16
4.01663e-16
3.84332e-16
3.64107e-16
3.41776e-16
3.18568e-16
2.95953e-16
2.75324e-16
3.70189e-16
3.70136e-16
3.7002e-16
3.69819e-16
3.69498e-16
3.69003e-16
3.68254e-16
3.67143e-16
3.65524e-16
3.63209e-16
3.59974e-16
3.55564e-16
3.49729e-16
3.42264e-16
3.33078e-16
3.22255e-16
3.10109e-16
2.97181e-16
2.84177e-16
2.71843e-16
3.26293e-16
3.26261e-16
3.26192e-16
3.26072e-16
3.25882e-16
3.2559e-16
3.25151e-16
3.24505e-16
3.2357e-16
3.22242e-16
3.204e-16
3.17904e-16
3.14618e-16
3.10426e-16
3.05265e-16
2.99159e-16
2.92246e-16
2.84784e-16
2.77129e-16
2.69684e-16
3.01812e-16
3.01792e-16
3.01749e-16
3.01674e-16
3.01556e-16
3.01376e-16
3.01107e-16
3.00714e-16
3.0015e-16
2.99355e-16
2.9826e-16
2.96787e-16
2.9486e-16
2.92412e-16
2.89406e-16
2.85849e-16
2.81807e-16
2.77411e-16
2.72848e-16
2.68342e-16
2.87579e-16
2.87566e-16
2.87538e-16
2.87491e-16
2.87415e-16
2.87301e-16
2.87133e-16
2.86887e-16
2.86538e-16
2.8605e-16
2.85383e-16
2.84492e-16
2.83335e-16
2.81873e-16
2.80087e-16
2.77977e-16
2.75579e-16
2.72964e-16
2.70232e-16
2.67509e-16
2.79094e-16
2.79086e-16
2.79067e-16
2.79037e-16
2.78988e-16
2.78915e-16
2.78808e-16
2.78653e-16
2.78434e-16
2.7813e-16
2.77719e-16
2.77174e-16
2.76471e-16
2.7559e-16
2.74518e-16
2.73257e-16
2.71827e-16
2.70266e-16
2.68632e-16
2.66994e-16
2.73968e-16
2.73963e-16
2.73951e-16
2.73931e-16
2.73899e-16
2.73852e-16
2.73784e-16
2.73686e-16
2.73548e-16
2.73359e-16
2.73105e-16
2.72771e-16
2.72343e-16
2.7181e-16
2.71166e-16
2.70412e-16
2.69559e-16
2.6863e-16
2.67657e-16
2.66678e-16
2.70857e-16
2.70853e-16
2.70845e-16
2.70832e-16
2.70812e-16
2.70782e-16
2.70739e-16
2.70677e-16
2.70591e-16
2.70474e-16
2.70317e-16
2.70113e-16
2.69853e-16
2.69532e-16
2.69147e-16
2.68697e-16
2.68191e-16
2.67641e-16
2.67066e-16
2.66486e-16
2.6897e-16
2.68968e-16
2.68963e-16
2.68955e-16
2.68942e-16
2.68923e-16
2.68896e-16
2.68857e-16
2.68804e-16
2.68731e-16
2.68636e-16
2.68512e-16
2.68356e-16
2.68164e-16
2.67934e-16
2.67669e-16
2.67371e-16
2.67048e-16
2.6671e-16
2.66371e-16
2.67833e-16
2.67831e-16
2.67828e-16
2.67823e-16
2.67815e-16
2.67803e-16
2.67786e-16
2.67762e-16
2.6773e-16
2.67686e-16
2.67628e-16
2.67554e-16
2.67461e-16
2.67347e-16
2.67212e-16
2.67056e-16
2.66882e-16
2.66695e-16
2.66499e-16
2.66302e-16
2.67153e-16
2.67152e-16
2.6715e-16
2.67147e-16
2.67142e-16
2.67134e-16
2.67124e-16
2.67109e-16
2.6709e-16
2.67063e-16
2.67029e-16
2.66985e-16
2.6693e-16
2.66863e-16
2.66785e-16
2.66695e-16
2.66594e-16
2.66486e-16
2.66374e-16
2.66261e-16
2.6675e-16
2.6675e-16
2.66749e-16
2.66747e-16
2.66744e-16
2.66739e-16
2.66733e-16
2.66724e-16
2.66712e-16
2.66697e-16
2.66677e-16
2.66651e-16
2.66619e-16
2.6658e-16
2.66535e-16
2.66484e-16
2.66426e-16
2.66365e-16
2.66301e-16
2.66237e-16
2.66515e-16
2.66515e-16
2.66514e-16
2.66513e-16
2.66511e-16
2.66508e-16
2.66505e-16
2.66499e-16
2.66493e-16
2.66483e-16
2.66472e-16
2.66457e-16
2.66439e-16
2.66417e-16
2.66391e-16
2.66362e-16
2.6633e-16
2.66295e-16
2.66259e-16
2.66223e-16
2.66379e-16
2.66379e-16
2.66379e-16
2.66378e-16
2.66377e-16
2.66375e-16
2.66373e-16
2.6637e-16
2.66366e-16
2.66361e-16
2.66354e-16
2.66346e-16
2.66335e-16
2.66323e-16
2.66309e-16
2.66292e-16
2.66274e-16
2.66255e-16
2.66236e-16
2.66216e-16
2.66302e-16
2.66302e-16
2.66301e-16
2.66301e-16
2.663e-16
2.66299e-16
2.66298e-16
2.66297e-16
2.66294e-16
2.66291e-16
2.66288e-16
2.66283e-16
2.66277e-16
2.6627e-16
2.66262e-16
2.66253e-16
2.66243e-16
2.66233e-16
2.66222e-16
2.66211e-16
2.66258e-16
2.66258e-16
2.66258e-16
2.66258e-16
2.66257e-16
2.66257e-16
2.66256e-16
2.66255e-16
2.66254e-16
2.66252e-16
2.6625e-16
2.66248e-16
2.66245e-16
2.66241e-16
2.66236e-16
2.66232e-16
2.66226e-16
2.66221e-16
2.66215e-16
2.66209e-16
2.66234e-16
2.66234e-16
2.66234e-16
2.66234e-16
2.66234e-16
2.66233e-16
2.66233e-16
2.66232e-16
2.66232e-16
2.66231e-16
2.6623e-16
2.66228e-16
2.66227e-16
2.66225e-16
2.66222e-16
2.6622e-16
2.66217e-16
2.66214e-16
2.66211e-16
2.66208e-16
2.66221e-16
2.66221e-16
2.66221e-16
2.66221e-16
2.66221e-16
2.66221e-16
2.6622e-16
2.6622e-16
2.6622e-16
2.66219e-16
2.66219e-16
2.66218e-16
2.66217e-16
2.66216e-16
2.66215e-16
2.66213e-16
2.66212e-16
2.6621e-16
2.66208e-16
2.66207e-16
2.66214e-16
2.66214e-16
2.66214e-16
2.66214e-16
2.66214e-16
2.66214e-16
2.66214e-16
2.66213e-16
2.66213e-16
2.66213e-16
2.66213e-16
2.66212e-16
2.66212e-16
2.66211e-16
2.66211e-16
2.6621e-16
2.66209e-16
2.66208e-16
2.66207e-16
2.66206e-16
2.6621e-16
2.6621e-16
2.6621e-16
2.6621e-16
2.6621e-16
2.6621e-16
2.6621e-16
2.6621e-16
2.6621e-16
2.6621e-16
2.66209e-16
2.66209e-16
2.66209e-16
2.66209e-16
2.66208e-16
2.66208e-16
2.66208e-16
2.66207e-16
2.66207e-16
2.66206e-16
2.66208e-16
2.66208e-16
2.66208e-16
2.66208e-16
2.66208e-16
2.66208e-16
2.66208e-16
2.66208e-16
2.66208e-16
2.66208e-16
2.66208e-16
2.66208e-16
2.66208e-16
2.66207e-16
2.66207e-16
2.66207e-16
2.66207e-16
2.66207e-16
2.66206e-16
2.66206e-16
2.66207e-16
2.66207e-16
2.66207e-16
2.66207e-16
2.66207e-16
2.66207e-16
2.66207e-16
2.66207e-16
2.66207e-16
2.66207e-16
2.66207e-16
2.66207e-16
2.66207e-16
2.66207e-16
2.66207e-16
2.66207e-16
2.66206e-16
2.66206e-16
2.66206e-16
2.66206e-16
2.66207e-16
2.66207e-16
2.66207e-16
2.66207e-16
2.66207e-16
2.66207e-16
2.66207e-16
2.66207e-16
2.66207e-16
2.66207e-16
2.66206e-16
2.66206e-16
2.66206e-16
2.66206e-16
2.66206e-16
2.66206e-16
2.66206e-16
2.66206e-16
2.66206e-16
2.66206e-16
2.66206e-16
2.66206e-16
2.66206e-16
2.66206e-16
2.66206e-16
2.66206e-16
2.66206e-16
2.66206e-16
2.66206e-16
2.66206e-16
2.66206e-16
2.66206e-16
2.66206e-16
2.66206e-16
2.66206e-16
2.66206e-16
2.66206e-16
2.66206e-16
2.66206e-16
2.66206e-16
2.66206e-16
2.66206e-16
2.66206e-16
2.66206e-16
2.66206e-16
2.66206e-16
2.66206e-16
2.66206e-16
2.66206e-16
2.66206e-16
2.66206e-16
2.66206e-16
2.66206e-16
2.66206e-16
2.66206e-16
2.66206e-16
2.66206e-16
2.66206e-16
2.66206e-16
2.66206e-16
2.66206e-16
2.66206e-16
2.66206e-16
2.66206e-16
2.66206e-16
2.66206e-16
2.66206e-16
2.66206e-16
2.66206e-16
2.66206e-16
2.66206e-16
2.66206e-16
2.66206e-16
2.66206e-16
2.66206e-16
2.66206e-16
2.66206e-16
2.66206e-16
2.66206e-16
2.66206e-16
2.66206e-16
2.66206e-16
2.66206e-16
2.66206e-16
2.66206e-16
2.66206e-16
2.66206e-16
2.66206e-16
2.66206e-16
2.66206e-16
2.66206e-16
2.66206e-16
2.66206e-16
2.66206e-16
2.66206e-16
2.66206e-16
2.66206e-16
2.66206e-16
2.66206e-16
2.66206e-16
2.66206e-16
2.66206e-16
2.66206e-16
2.66206e-16
2.66206e-16
2.66206e-16
2.66206e-16
2.66206e-16
2.66206e-16
2.66206e-16
2.66206e-16
2.66206e-16
2.66206e-16
2.66206e-16
2.66206e-16
2.66206e-16
2.66206e-16
2.66206e-16
2.66206e-16
2.66206e-16
2.66206e-16
2.66206e-16
2.66206e-16
2.66206e-16
2.66206e-16
2.66206e-16
2.66206e-16
2.66206e-16
2.66206e-16
2.66206e-16
2.66206e-16
2.66206e-16
2.66206e-16
2.66206e-16
2.66206e-16
2.66206e-16
2.66206e-16
2.66206e-16
2.66206e-16
2.66206e-16
2.66206e-16
2.66206e-16
2.66206e-16
2.66206e-16
2.66206e-16
2.66206e-16
2.66206e-16
2.66206e-16
2.66206e-16
2.66206e-16
2.66206e-16
2.66206e-16
2.66206e-16
2.66206e-16
2.66206e-16
2.66206e-16
2.66206e-16
2.66206e-16
2.66206e-16
2.66206e-16
2.66206e-16
2.66206e-16
2.66206e-16
2.66206e-16
2.66206e-16
2.66206e-16
2.66206e-16
2.66206e-16
2.66206e-16
2.66206e-16
2.66206e-16
2.66206e-16
2.66206e-16
2.66206e-16
2.66206e-16
2.66206e-16
2.66206e-16
2.66206e-16
2.66206e-16
2.66206e-16
2.66206e-16
2.66206e-16
2.66206e-16
2.66206e-16
2.66206e-16
2.66206e-16
2.66206e-16
2.66206e-16
2.66206e-16
2.66206e-16
2.66206e-16
2.66206e-16
2.66206e-16
2.66206e-16
2.66206e-16
2.66206e-16
2.66206e-16
2.66206e-16
2.66206e-16
2.66206e-16
2.66206e-16
2.66206e-16
2.66206e-16
2.66206e-16
2.66206e-16
2.66206e-16
2.66206e-16
2.66206e-16
2.66206e-16
2.66206e-16
2.66206e-16
2.66206e-16
2.66206e-16
2.66206e-16
2.66206e-16
2.66206e-16
2.66206e-16
2.66206e-16
2.66206e-16
2.66206e-16
2.66206e-16
2.66206e-16
2.66206e-16
2.66206e-16
2.66206e-16
2.66206e-16
2.66206e-16
2.66206e-16
2.66206e-16
2.66206e-16
2.66206e-16
2.66206e-16
2.66206e-16
2.66206e-16
2.66206e-16
2.66206e-16
2.66206e-16
2.66206e-16
2.66206e-16
2.66206e-16
2.66206e-16
2.66206e-16
2.66206e-16
2.66206e-16
2.66206e-16
2.66206e-16
2.66206e-16
2.66206e-16
2.66206e-16
2.66206e-16
2.66206e-16
2.66206e-16
2.66206e-16
2.66206e-16
2.66206e-16
2.66206e-16
2.66206e-16
2.66206e-16
2.66206e-16
2.66206e-16
2.66206e-16
2.66206e-16
2.66206e-16
2.66206e-16
2.66206e-16
2.66206e-16
2.66206e-16
2.66206e-16
2.66206e-16
2.66206e-16
2.66206e-16
2.66206e-16
2.66206e-16
2.66206e-16
2.66206e-16
2.66206e-16
2.66206e-16
2.66206e-16
2.66206e-16
2.66206e-16
)
;

boundaryField
{
    topWall
    {
        type            calculated;
        value           uniform 0;
    }
    bottomWall
    {
        type            zeroGradient;
    }
    sideWallL
    {
        type            symmetry;
    }
    sideWallR
    {
        type            calculated;
        value           uniform 0;
    }
    frontAndBack
    {
        type            empty;
    }
}


// ************************************************************************* //
