/*--------------------------------*- C++ -*----------------------------------*\
  =========                 |
  \\      /  F ield         | OpenFOAM: The Open Source CFD Toolbox
   \\    /   O peration     | Website:  https://openfoam.org
    \\  /    A nd           | Version:  7
     \\/     M anipulation  |
\*---------------------------------------------------------------------------*/
FoamFile
{
    version     2.0;
    format      ascii;
    class       volScalarField;
    location    "10";
    object      rhois;
}
// * * * * * * * * * * * * * * * * * * * * * * * * * * * * * * * * * * * * * //

dimensions      [1 -3 0 0 0 0 0];

internalField   nonuniform List<scalar> 
900
(
1.05589e-07
1.05584e-07
1.05573e-07
1.05553e-07
1.05519e-07
1.05465e-07
1.05377e-07
1.05237e-07
1.05014e-07
1.04657e-07
1.04086e-07
1.03169e-07
1.01687e-07
9.92622e-08
9.52304e-08
8.83651e-08
7.63508e-08
5.52597e-08
2.34655e-08
1.33566e-09
1.38309e-08
1.38288e-08
1.38241e-08
1.38159e-08
1.38022e-08
1.378e-08
1.37443e-08
1.36876e-08
1.35977e-08
1.34554e-08
1.32311e-08
1.28787e-08
1.23279e-08
1.14748e-08
1.0177e-08
8.27607e-09
5.71371e-09
2.84432e-09
7.15098e-10
4.70663e-11
2.30356e-09
2.30299e-09
2.30172e-09
2.29946e-09
2.29573e-09
2.28969e-09
2.28007e-09
2.26485e-09
2.2409e-09
2.20351e-09
2.1456e-09
2.05693e-09
1.92341e-09
1.72767e-09
1.45307e-09
1.09584e-09
6.88461e-10
3.19195e-10
9.22779e-11
1.58137e-11
4.99467e-10
4.99306e-10
4.9895e-10
4.98319e-10
4.97276e-10
4.956e-10
4.92942e-10
4.88768e-10
4.82269e-10
4.72256e-10
4.57026e-10
4.34272e-10
4.01133e-10
3.54663e-10
2.93163e-10
2.1871e-10
1.40131e-10
7.26579e-11
2.94442e-11
1.0292e-11
1.42667e-10
1.42617e-10
1.42504e-10
1.42305e-10
1.41978e-10
1.41454e-10
1.40628e-10
1.39341e-10
1.37358e-10
1.34341e-10
1.29828e-10
1.23221e-10
1.13842e-10
1.01086e-10
8.47629e-11
6.56147e-11
4.57232e-11
2.81823e-11
1.55901e-11
8.38924e-12
5.36517e-11
5.36331e-11
5.35919e-11
5.35193e-11
5.34003e-11
5.32109e-11
5.29143e-11
5.24555e-11
5.17552e-11
5.0702e-11
4.91476e-11
4.69086e-11
4.37856e-11
3.96138e-11
3.43554e-11
2.82205e-11
2.17475e-11
1.57213e-11
1.087e-11
7.5152e-12
2.61024e-11
2.60946e-11
2.60771e-11
2.60466e-11
2.59966e-11
2.59175e-11
2.57943e-11
2.56052e-11
2.53191e-11
2.48932e-11
2.42715e-11
2.33868e-11
2.21672e-11
2.05537e-11
1.85284e-11
1.61494e-11
1.35745e-11
1.10444e-11
8.81272e-12
7.05212e-12
1.58224e-11
1.58186e-11
1.58102e-11
1.57955e-11
1.57717e-11
1.5734e-11
1.56759e-11
1.55872e-11
1.54541e-11
1.52577e-11
1.49739e-11
1.45737e-11
1.40267e-11
1.3307e-11
1.24033e-11
1.13316e-11
1.01437e-11
8.92506e-12
7.77699e-12
6.7872e-12
1.13553e-11
1.13532e-11
1.13487e-11
1.13409e-11
1.13282e-11
1.13083e-11
1.12777e-11
1.12314e-11
1.11626e-11
1.10618e-11
1.09174e-11
1.07156e-11
1.04416e-11
1.00826e-11
9.63173e-12
9.09285e-12
8.48481e-12
7.84181e-12
7.20829e-12
6.62896e-12
9.17296e-12
9.17177e-12
9.16915e-12
9.1646e-12
9.15726e-12
9.14584e-12
9.12839e-12
9.1022e-12
9.06352e-12
9.00741e-12
8.92771e-12
8.8172e-12
8.66824e-12
8.474e-12
8.23029e-12
7.93781e-12
7.60409e-12
7.24418e-12
6.8791e-12
6.5321e-12
8.01157e-12
8.01083e-12
8.00921e-12
8.00641e-12
8.00191e-12
7.99495e-12
7.9844e-12
7.96868e-12
7.94566e-12
7.91255e-12
7.86593e-12
7.80184e-12
7.71609e-12
7.60493e-12
7.46588e-12
7.2989e-12
7.10731e-12
6.8983e-12
6.68242e-12
6.47205e-12
7.35542e-12
7.35494e-12
7.3539e-12
7.3521e-12
7.34924e-12
7.34483e-12
7.33819e-12
7.32839e-12
7.31415e-12
7.29385e-12
7.26553e-12
7.22693e-12
7.17571e-12
7.10976e-12
7.02767e-12
6.92929e-12
6.81625e-12
6.69222e-12
6.56276e-12
6.43462e-12
6.96969e-12
6.96937e-12
6.96869e-12
6.96751e-12
6.96564e-12
6.96278e-12
6.95851e-12
6.95226e-12
6.94325e-12
6.93053e-12
6.91293e-12
6.88917e-12
6.85791e-12
6.81795e-12
6.76852e-12
6.70952e-12
6.64183e-12
6.56741e-12
6.48931e-12
6.41126e-12
6.73728e-12
6.73707e-12
6.73661e-12
6.73583e-12
6.7346e-12
6.73273e-12
6.72996e-12
6.72592e-12
6.72016e-12
6.7121e-12
6.70106e-12
6.68628e-12
6.667e-12
6.64255e-12
6.61251e-12
6.57684e-12
6.53605e-12
6.49123e-12
6.44409e-12
6.39673e-12
6.59536e-12
6.59522e-12
6.59491e-12
6.59439e-12
6.59358e-12
6.59235e-12
6.59055e-12
6.58794e-12
6.58426e-12
6.57914e-12
6.5722e-12
6.56298e-12
6.55106e-12
6.53608e-12
6.51779e-12
6.4962e-12
6.47161e-12
6.44466e-12
6.41631e-12
6.38775e-12
6.50823e-12
6.50813e-12
6.50793e-12
6.50759e-12
6.50706e-12
6.50626e-12
6.50509e-12
6.50342e-12
6.50107e-12
6.49784e-12
6.49349e-12
6.48776e-12
6.48042e-12
6.47126e-12
6.46017e-12
6.44715e-12
6.43239e-12
6.41626e-12
6.39932e-12
6.38223e-12
6.45477e-12
6.45471e-12
6.45458e-12
6.45435e-12
6.45401e-12
6.45349e-12
6.45274e-12
6.45168e-12
6.4502e-12
6.44817e-12
6.44547e-12
6.44194e-12
6.43746e-12
6.4319e-12
6.42522e-12
6.41742e-12
6.40862e-12
6.39904e-12
6.389e-12
6.37887e-12
6.42213e-12
6.4221e-12
6.42201e-12
6.42187e-12
6.42164e-12
6.42131e-12
6.42084e-12
6.42017e-12
6.41925e-12
6.418e-12
6.41634e-12
6.41419e-12
6.41147e-12
6.40813e-12
6.40414e-12
6.39952e-12
6.39432e-12
6.38868e-12
6.38279e-12
6.37684e-12
6.40237e-12
6.40234e-12
6.40229e-12
6.4022e-12
6.40205e-12
6.40185e-12
6.40155e-12
6.40114e-12
6.40057e-12
6.39981e-12
6.3988e-12
6.39751e-12
6.39588e-12
6.3939e-12
6.39154e-12
6.38883e-12
6.38579e-12
6.38251e-12
6.37908e-12
6.37563e-12
6.39051e-12
6.3905e-12
6.39046e-12
6.3904e-12
6.39032e-12
6.39019e-12
6.39001e-12
6.38976e-12
6.38941e-12
6.38895e-12
6.38835e-12
6.38758e-12
6.38662e-12
6.38546e-12
6.38409e-12
6.38251e-12
6.38076e-12
6.37887e-12
6.3769e-12
6.37492e-12
6.38348e-12
6.38347e-12
6.38345e-12
6.38342e-12
6.38336e-12
6.38329e-12
6.38318e-12
6.38303e-12
6.38282e-12
6.38255e-12
6.38219e-12
6.38174e-12
6.38119e-12
6.38051e-12
6.37972e-12
6.37882e-12
6.37782e-12
6.37675e-12
6.37563e-12
6.37451e-12
6.37937e-12
6.37936e-12
6.37935e-12
6.37933e-12
6.3793e-12
6.37925e-12
6.37919e-12
6.3791e-12
6.37898e-12
6.37882e-12
6.37861e-12
6.37835e-12
6.37803e-12
6.37765e-12
6.3772e-12
6.37669e-12
6.37613e-12
6.37552e-12
6.37489e-12
6.37427e-12
6.37699e-12
6.37699e-12
6.37698e-12
6.37697e-12
6.37695e-12
6.37692e-12
6.37688e-12
6.37683e-12
6.37676e-12
6.37667e-12
6.37655e-12
6.37641e-12
6.37623e-12
6.37601e-12
6.37576e-12
6.37547e-12
6.37516e-12
6.37482e-12
6.37448e-12
6.37413e-12
6.37564e-12
6.37563e-12
6.37563e-12
6.37562e-12
6.37561e-12
6.3756e-12
6.37558e-12
6.37555e-12
6.37551e-12
6.37545e-12
6.37539e-12
6.37531e-12
6.37521e-12
6.37509e-12
6.37495e-12
6.37479e-12
6.37462e-12
6.37443e-12
6.37424e-12
6.37405e-12
6.37488e-12
6.37487e-12
6.37487e-12
6.37487e-12
6.37486e-12
6.37485e-12
6.37484e-12
6.37482e-12
6.3748e-12
6.37477e-12
6.37474e-12
6.37469e-12
6.37464e-12
6.37457e-12
6.37449e-12
6.37441e-12
6.37432e-12
6.37422e-12
6.37411e-12
6.37401e-12
6.37445e-12
6.37445e-12
6.37445e-12
6.37445e-12
6.37445e-12
6.37444e-12
6.37443e-12
6.37442e-12
6.37441e-12
6.3744e-12
6.37438e-12
6.37435e-12
6.37432e-12
6.37429e-12
6.37425e-12
6.3742e-12
6.37415e-12
6.3741e-12
6.37404e-12
6.37399e-12
6.37422e-12
6.37422e-12
6.37422e-12
6.37422e-12
6.37422e-12
6.37422e-12
6.37421e-12
6.37421e-12
6.3742e-12
6.37419e-12
6.37418e-12
6.37417e-12
6.37415e-12
6.37413e-12
6.37411e-12
6.37409e-12
6.37406e-12
6.37403e-12
6.374e-12
6.37398e-12
6.3741e-12
6.3741e-12
6.3741e-12
6.3741e-12
6.3741e-12
6.37409e-12
6.37409e-12
6.37409e-12
6.37409e-12
6.37408e-12
6.37408e-12
6.37407e-12
6.37406e-12
6.37405e-12
6.37404e-12
6.37403e-12
6.37401e-12
6.374e-12
6.37398e-12
6.37397e-12
6.37403e-12
6.37403e-12
6.37403e-12
6.37403e-12
6.37403e-12
6.37403e-12
6.37403e-12
6.37403e-12
6.37403e-12
6.37402e-12
6.37402e-12
6.37402e-12
6.37401e-12
6.37401e-12
6.374e-12
6.374e-12
6.37399e-12
6.37398e-12
6.37397e-12
6.37397e-12
6.374e-12
6.374e-12
6.374e-12
6.374e-12
6.374e-12
6.374e-12
6.374e-12
6.374e-12
6.37399e-12
6.37399e-12
6.37399e-12
6.37399e-12
6.37399e-12
6.37398e-12
6.37398e-12
6.37398e-12
6.37397e-12
6.37397e-12
6.37397e-12
6.37396e-12
6.37398e-12
6.37398e-12
6.37398e-12
6.37398e-12
6.37398e-12
6.37398e-12
6.37398e-12
6.37398e-12
6.37398e-12
6.37398e-12
6.37398e-12
6.37398e-12
6.37397e-12
6.37397e-12
6.37397e-12
6.37397e-12
6.37397e-12
6.37397e-12
6.37396e-12
6.37396e-12
6.37397e-12
6.37397e-12
6.37397e-12
6.37397e-12
6.37397e-12
6.37397e-12
6.37397e-12
6.37397e-12
6.37397e-12
6.37397e-12
6.37397e-12
6.37397e-12
6.37397e-12
6.37397e-12
6.37397e-12
6.37397e-12
6.37396e-12
6.37396e-12
6.37396e-12
6.37396e-12
6.37397e-12
6.37397e-12
6.37397e-12
6.37397e-12
6.37397e-12
6.37397e-12
6.37397e-12
6.37397e-12
6.37397e-12
6.37397e-12
6.37397e-12
6.37396e-12
6.37396e-12
6.37396e-12
6.37396e-12
6.37396e-12
6.37396e-12
6.37396e-12
6.37396e-12
6.37396e-12
6.37396e-12
6.37396e-12
6.37396e-12
6.37396e-12
6.37396e-12
6.37396e-12
6.37396e-12
6.37396e-12
6.37396e-12
6.37396e-12
6.37396e-12
6.37396e-12
6.37396e-12
6.37396e-12
6.37396e-12
6.37396e-12
6.37396e-12
6.37396e-12
6.37396e-12
6.37396e-12
6.37396e-12
6.37396e-12
6.37396e-12
6.37396e-12
6.37396e-12
6.37396e-12
6.37396e-12
6.37396e-12
6.37396e-12
6.37396e-12
6.37396e-12
6.37396e-12
6.37396e-12
6.37396e-12
6.37396e-12
6.37396e-12
6.37396e-12
6.37396e-12
6.37396e-12
6.37396e-12
6.37396e-12
6.37396e-12
6.37396e-12
6.37396e-12
6.37396e-12
6.37396e-12
6.37396e-12
6.37396e-12
6.37396e-12
6.37396e-12
6.37396e-12
6.37396e-12
6.37396e-12
6.37396e-12
6.37396e-12
6.37396e-12
6.37396e-12
6.37396e-12
6.37396e-12
6.37396e-12
6.37396e-12
6.37396e-12
6.37396e-12
6.37396e-12
6.37396e-12
6.37396e-12
6.37396e-12
6.37396e-12
6.37396e-12
6.37396e-12
6.37396e-12
6.37396e-12
6.37396e-12
6.37396e-12
6.37396e-12
6.37396e-12
6.37396e-12
6.37396e-12
6.37396e-12
6.37396e-12
6.37396e-12
6.37396e-12
6.37396e-12
6.37396e-12
6.37396e-12
6.37396e-12
6.37396e-12
6.37396e-12
6.37396e-12
6.37396e-12
6.37396e-12
6.37396e-12
6.37396e-12
6.37396e-12
6.37396e-12
6.37396e-12
6.37396e-12
6.37396e-12
6.37396e-12
6.37396e-12
6.37396e-12
6.37396e-12
6.37396e-12
6.37396e-12
6.37396e-12
6.37396e-12
6.37396e-12
6.37396e-12
6.37396e-12
6.37396e-12
6.37396e-12
6.37396e-12
6.37396e-12
6.37396e-12
6.37396e-12
6.37396e-12
6.37396e-12
6.37396e-12
6.37396e-12
6.37396e-12
6.37396e-12
6.37396e-12
6.37396e-12
6.37396e-12
6.37396e-12
6.37396e-12
6.37396e-12
6.37396e-12
6.37396e-12
6.37396e-12
6.37396e-12
6.37396e-12
6.37396e-12
6.37396e-12
6.37396e-12
6.37396e-12
6.37396e-12
6.37396e-12
6.37396e-12
6.37396e-12
6.37396e-12
6.37396e-12
6.37396e-12
6.37396e-12
6.37396e-12
6.37396e-12
6.37396e-12
6.37396e-12
6.37396e-12
6.37396e-12
6.37396e-12
6.37396e-12
6.37396e-12
6.37396e-12
6.37396e-12
6.37396e-12
6.37396e-12
6.37396e-12
6.37396e-12
6.37396e-12
6.37396e-12
6.37396e-12
6.37396e-12
6.37396e-12
6.37396e-12
6.37396e-12
6.37396e-12
6.37396e-12
6.37396e-12
6.37396e-12
6.37396e-12
6.37396e-12
6.37396e-12
6.37396e-12
6.37396e-12
6.37396e-12
6.37396e-12
6.37396e-12
6.37396e-12
6.37396e-12
6.37396e-12
6.37396e-12
6.37396e-12
6.37396e-12
6.37396e-12
6.37396e-12
6.37396e-12
6.37396e-12
6.37396e-12
6.37396e-12
6.37396e-12
6.37396e-12
6.37396e-12
6.37396e-12
6.37396e-12
6.37396e-12
6.37396e-12
6.37396e-12
6.37396e-12
6.37396e-12
6.37396e-12
6.37396e-12
6.37396e-12
6.37396e-12
6.37396e-12
6.37396e-12
6.37396e-12
6.37396e-12
6.37396e-12
6.37396e-12
6.37396e-12
6.37396e-12
6.37396e-12
6.37396e-12
6.37396e-12
6.37396e-12
6.37396e-12
6.37396e-12
6.37396e-12
6.37396e-12
6.37396e-12
6.37396e-12
6.37396e-12
6.37396e-12
6.37396e-12
6.37396e-12
6.37396e-12
6.37396e-12
6.37396e-12
6.37396e-12
6.37396e-12
6.37396e-12
6.37396e-12
6.37396e-12
6.37396e-12
6.37396e-12
6.37396e-12
6.37396e-12
6.37396e-12
6.37396e-12
)
;

boundaryField
{
    topWall
    {
        type            zeroGradient;
    }
    bottomWall
    {
        type            zeroGradient;
    }
    sideWallL
    {
        type            symmetry;
    }
    sideWallR
    {
        type            zeroGradient;
    }
    frontAndBack
    {
        type            empty;
    }
}


// ************************************************************************* //
