/*--------------------------------*- C++ -*----------------------------------*\
  =========                 |
  \\      /  F ield         | OpenFOAM: The Open Source CFD Toolbox
   \\    /   O peration     | Website:  https://openfoam.org
    \\  /    A nd           | Version:  7
     \\/     M anipulation  |
\*---------------------------------------------------------------------------*/
FoamFile
{
    version     2.0;
    format      ascii;
    class       volScalarField;
    location    "10";
    object      rhot2;
}
// * * * * * * * * * * * * * * * * * * * * * * * * * * * * * * * * * * * * * //

dimensions      [1 -3 0 0 0 0 0];

internalField   nonuniform List<scalar> 
900
(
6.01844e-19
6.01764e-19
6.01585e-19
6.01268e-19
6.00742e-19
5.99891e-19
5.9853e-19
5.96364e-19
5.92929e-19
5.8749e-19
5.7889e-19
5.65295e-19
5.43814e-19
5.09915e-19
4.56694e-19
3.74547e-19
2.54538e-19
1.08485e-19
1.13391e-20
5.70776e-24
3.04532e-21
3.04404e-21
3.0412e-21
3.03615e-21
3.02781e-21
3.01438e-21
2.99301e-21
2.9593e-21
2.90652e-21
2.82459e-21
2.69888e-21
2.50931e-21
2.23113e-21
1.84111e-21
1.33606e-21
7.70051e-22
2.87335e-22
4.4915e-23
1.12565e-24
7.05616e-28
2.81052e-23
2.80856e-23
2.80421e-23
2.79652e-23
2.78386e-23
2.76355e-23
2.73149e-23
2.68143e-23
2.6042e-23
2.4869e-23
2.3126e-23
2.06191e-23
1.71912e-23
1.28647e-23
8.06922e-24
3.77698e-24
1.0815e-24
1.35956e-25
4.64365e-27
3.59145e-29
5.00563e-25
5.00105e-25
4.99091e-25
4.97303e-25
4.94367e-25
4.89687e-25
4.82353e-25
4.71021e-25
4.53791e-25
4.28139e-25
3.91069e-25
3.39776e-25
2.73261e-25
1.95072e-25
1.15917e-25
5.20554e-26
1.53857e-26
2.52248e-27
2.05291e-28
1.12137e-29
1.76389e-26
1.76207e-26
1.75804e-26
1.75095e-26
1.73937e-26
1.721e-26
1.69242e-26
1.64868e-26
1.58297e-26
1.48666e-26
1.35024e-26
1.16613e-26
9.34363e-27
6.70416e-27
4.10109e-27
2.00611e-27
7.29782e-28
1.87352e-28
3.55348e-29
6.48944e-30
1.22825e-27
1.22699e-27
1.22419e-27
1.2193e-27
1.21132e-27
1.19873e-27
1.17926e-27
1.14969e-27
1.10565e-27
1.04177e-27
9.52298e-28
8.32852e-28
6.83621e-28
5.13423e-28
3.41894e-28
1.95086e-28
9.28713e-29
3.69955e-29
1.31752e-29
4.85061e-30
1.64498e-28
1.64348e-28
1.64017e-28
1.63437e-28
1.62496e-28
1.61019e-28
1.58745e-28
1.55309e-28
1.50223e-28
1.42887e-28
1.32651e-28
1.18986e-28
1.0178e-28
8.17188e-29
6.05346e-29
4.07643e-29
2.48255e-29
1.38788e-29
7.44427e-30
4.10573e-30
3.96734e-29
3.96445e-29
3.95808e-29
3.94698e-29
3.92902e-29
3.90091e-29
3.85784e-29
3.79305e-29
3.69754e-29
3.56013e-29
3.36838e-29
3.11102e-29
2.78233e-29
2.38802e-29
1.95016e-29
1.50681e-29
1.10267e-29
7.7319e-30
5.32187e-30
3.71629e-30
1.54105e-29
1.54023e-29
1.53841e-29
1.53525e-29
1.53015e-29
1.52221e-29
1.51009e-29
1.49194e-29
1.46528e-29
1.42701e-29
1.37356e-29
1.30143e-29
1.20809e-29
1.09332e-29
9.6058e-30
8.17567e-30
6.7521e-30
5.449e-30
4.35161e-30
3.49616e-30
8.44334e-30
8.44015e-30
8.43318e-30
8.42107e-30
8.40163e-30
8.37146e-30
8.32566e-30
8.25737e-30
8.15751e-30
8.01458e-30
7.81517e-30
7.5453e-30
7.1931e-30
6.75282e-30
6.22935e-30
5.64157e-30
5.02198e-30
4.41136e-30
3.84951e-30
3.36602e-30
5.80529e-30
5.80379e-30
5.80049e-30
5.7948e-30
5.78569e-30
5.77162e-30
5.75038e-30
5.71889e-30
5.67308e-30
5.60783e-30
5.51706e-30
5.39428e-30
5.2335e-30
5.03072e-30
4.78573e-30
4.5037e-30
4.19583e-30
3.87834e-30
3.56972e-30
3.28711e-30
4.60399e-30
4.60318e-30
4.60139e-30
4.59832e-30
4.59344e-30
4.58593e-30
4.57467e-30
4.55808e-30
4.5341e-30
4.50013e-30
4.45313e-30
4.38975e-30
4.30682e-30
4.20192e-30
4.07422e-30
3.92522e-30
3.75928e-30
3.5835e-30
3.40682e-30
3.23861e-30
3.98794e-30
3.98746e-30
3.98641e-30
3.98461e-30
3.98176e-30
3.9774e-30
3.97091e-30
3.9614e-30
3.94777e-30
3.92859e-30
3.90221e-30
3.86684e-30
3.82071e-30
3.76243e-30
3.69134e-30
3.60791e-30
3.51403e-30
3.41308e-30
3.30958e-30
3.20863e-30
3.64763e-30
3.64733e-30
3.64667e-30
3.64556e-30
3.64381e-30
3.64115e-30
3.63722e-30
3.6315e-30
3.62336e-30
3.61199e-30
3.59647e-30
3.57579e-30
3.54897e-30
3.51522e-30
3.47411e-30
3.42581e-30
3.37123e-30
3.31209e-30
3.25078e-30
3.1901e-30
3.45099e-30
3.45079e-30
3.45038e-30
3.44968e-30
3.44857e-30
3.4469e-30
3.44446e-30
3.44092e-30
3.43593e-30
3.42902e-30
3.41965e-30
3.40726e-30
3.39129e-30
3.3713e-30
3.34704e-30
3.3186e-30
3.28644e-30
3.25149e-30
3.21505e-30
3.17868e-30
3.33445e-30
3.33433e-30
3.33406e-30
3.33361e-30
3.33291e-30
3.33185e-30
3.33031e-30
3.32811e-30
3.32501e-30
3.32076e-30
3.31505e-30
3.30754e-30
3.29794e-30
3.28598e-30
3.27155e-30
3.25469e-30
3.23567e-30
3.21498e-30
3.19336e-30
3.17169e-30
3.26455e-30
3.26447e-30
3.2643e-30
3.26401e-30
3.26356e-30
3.26289e-30
3.26192e-30
3.26054e-30
3.25862e-30
3.256e-30
3.25251e-30
3.24796e-30
3.24218e-30
3.23502e-30
3.22644e-30
3.21645e-30
3.20521e-30
3.19301e-30
3.18026e-30
3.16744e-30
3.22247e-30
3.22242e-30
3.22231e-30
3.22213e-30
3.22184e-30
3.22142e-30
3.22081e-30
3.21996e-30
3.21877e-30
3.21717e-30
3.21505e-30
3.2123e-30
3.20883e-30
3.20457e-30
3.19949e-30
3.1936e-30
3.187e-30
3.17985e-30
3.17239e-30
3.16488e-30
3.19721e-30
3.19718e-30
3.19711e-30
3.197e-30
3.19682e-30
3.19656e-30
3.19618e-30
3.19565e-30
3.19493e-30
3.19396e-30
3.19268e-30
3.19104e-30
3.18898e-30
3.18646e-30
3.18347e-30
3.18003e-30
3.17619e-30
3.17204e-30
3.16771e-30
3.16336e-30
3.18215e-30
3.18213e-30
3.18209e-30
3.18202e-30
3.18191e-30
3.18175e-30
3.18152e-30
3.1812e-30
3.18076e-30
3.18018e-30
3.17942e-30
3.17845e-30
3.17723e-30
3.17576e-30
3.17403e-30
3.17204e-30
3.16982e-30
3.16744e-30
3.16495e-30
3.16246e-30
3.17326e-30
3.17325e-30
3.17322e-30
3.17318e-30
3.17311e-30
3.17301e-30
3.17287e-30
3.17268e-30
3.17242e-30
3.17208e-30
3.17163e-30
3.17106e-30
3.17036e-30
3.16951e-30
3.16851e-30
3.16737e-30
3.16611e-30
3.16476e-30
3.16335e-30
3.16193e-30
3.16806e-30
3.16805e-30
3.16804e-30
3.16801e-30
3.16797e-30
3.16791e-30
3.16783e-30
3.16772e-30
3.16757e-30
3.16737e-30
3.16711e-30
3.16678e-30
3.16638e-30
3.16589e-30
3.16533e-30
3.16468e-30
3.16397e-30
3.16321e-30
3.16242e-30
3.16163e-30
3.16506e-30
3.16506e-30
3.16505e-30
3.16503e-30
3.16501e-30
3.16498e-30
3.16493e-30
3.16486e-30
3.16478e-30
3.16466e-30
3.16451e-30
3.16433e-30
3.1641e-30
3.16383e-30
3.16351e-30
3.16315e-30
3.16276e-30
3.16234e-30
3.1619e-30
3.16146e-30
3.16336e-30
3.16335e-30
3.16335e-30
3.16334e-30
3.16333e-30
3.16331e-30
3.16328e-30
3.16324e-30
3.16319e-30
3.16313e-30
3.16304e-30
3.16294e-30
3.16281e-30
3.16266e-30
3.16249e-30
3.16229e-30
3.16207e-30
3.16184e-30
3.1616e-30
3.16136e-30
3.1624e-30
3.1624e-30
3.16239e-30
3.16239e-30
3.16238e-30
3.16237e-30
3.16235e-30
3.16233e-30
3.16231e-30
3.16227e-30
3.16222e-30
3.16217e-30
3.1621e-30
3.16201e-30
3.16192e-30
3.16181e-30
3.16169e-30
3.16157e-30
3.16144e-30
3.16131e-30
3.16187e-30
3.16187e-30
3.16186e-30
3.16186e-30
3.16186e-30
3.16185e-30
3.16184e-30
3.16183e-30
3.16182e-30
3.1618e-30
3.16177e-30
3.16174e-30
3.1617e-30
3.16166e-30
3.16161e-30
3.16155e-30
3.16149e-30
3.16142e-30
3.16135e-30
3.16128e-30
3.16158e-30
3.16158e-30
3.16158e-30
3.16157e-30
3.16157e-30
3.16157e-30
3.16156e-30
3.16156e-30
3.16155e-30
3.16154e-30
3.16152e-30
3.16151e-30
3.16149e-30
3.16146e-30
3.16144e-30
3.16141e-30
3.16137e-30
3.16134e-30
3.1613e-30
3.16127e-30
3.16142e-30
3.16142e-30
3.16142e-30
3.16142e-30
3.16142e-30
3.16142e-30
3.16141e-30
3.16141e-30
3.16141e-30
3.1614e-30
3.16139e-30
3.16138e-30
3.16137e-30
3.16136e-30
3.16135e-30
3.16133e-30
3.16131e-30
3.1613e-30
3.16128e-30
3.16126e-30
3.16134e-30
3.16134e-30
3.16134e-30
3.16134e-30
3.16134e-30
3.16133e-30
3.16133e-30
3.16133e-30
3.16133e-30
3.16133e-30
3.16132e-30
3.16132e-30
3.16131e-30
3.16131e-30
3.1613e-30
3.16129e-30
3.16128e-30
3.16127e-30
3.16126e-30
3.16125e-30
3.16129e-30
3.16129e-30
3.16129e-30
3.16129e-30
3.16129e-30
3.16129e-30
3.16129e-30
3.16129e-30
3.16129e-30
3.16129e-30
3.16129e-30
3.16128e-30
3.16128e-30
3.16128e-30
3.16127e-30
3.16127e-30
3.16127e-30
3.16126e-30
3.16126e-30
3.16125e-30
3.16127e-30
3.16127e-30
3.16127e-30
3.16127e-30
3.16127e-30
3.16127e-30
3.16127e-30
3.16127e-30
3.16127e-30
3.16127e-30
3.16127e-30
3.16127e-30
3.16126e-30
3.16126e-30
3.16126e-30
3.16126e-30
3.16126e-30
3.16125e-30
3.16125e-30
3.16125e-30
3.16126e-30
3.16126e-30
3.16126e-30
3.16126e-30
3.16126e-30
3.16126e-30
3.16126e-30
3.16126e-30
3.16126e-30
3.16126e-30
3.16126e-30
3.16126e-30
3.16126e-30
3.16126e-30
3.16125e-30
3.16125e-30
3.16125e-30
3.16125e-30
3.16125e-30
3.16125e-30
3.16125e-30
3.16125e-30
3.16125e-30
3.16125e-30
3.16125e-30
3.16125e-30
3.16125e-30
3.16125e-30
3.16125e-30
3.16125e-30
3.16125e-30
3.16125e-30
3.16125e-30
3.16125e-30
3.16125e-30
3.16125e-30
3.16125e-30
3.16125e-30
3.16125e-30
3.16125e-30
3.16125e-30
3.16125e-30
3.16125e-30
3.16125e-30
3.16125e-30
3.16125e-30
3.16125e-30
3.16125e-30
3.16125e-30
3.16125e-30
3.16125e-30
3.16125e-30
3.16125e-30
3.16125e-30
3.16125e-30
3.16125e-30
3.16125e-30
3.16125e-30
3.16125e-30
3.16125e-30
3.16125e-30
3.16125e-30
3.16125e-30
3.16125e-30
3.16125e-30
3.16125e-30
3.16125e-30
3.16125e-30
3.16125e-30
3.16125e-30
3.16125e-30
3.16125e-30
3.16125e-30
3.16125e-30
3.16125e-30
3.16125e-30
3.16125e-30
3.16125e-30
3.16125e-30
3.16125e-30
3.16125e-30
3.16125e-30
3.16125e-30
3.16125e-30
3.16125e-30
3.16125e-30
3.16125e-30
3.16125e-30
3.16125e-30
3.16125e-30
3.16125e-30
3.16125e-30
3.16125e-30
3.16125e-30
3.16125e-30
3.16125e-30
3.16125e-30
3.16125e-30
3.16125e-30
3.16125e-30
3.16125e-30
3.16125e-30
3.16125e-30
3.16125e-30
3.16125e-30
3.16125e-30
3.16125e-30
3.16125e-30
3.16125e-30
3.16125e-30
3.16125e-30
3.16125e-30
3.16125e-30
3.16125e-30
3.16125e-30
3.16125e-30
3.16125e-30
3.16125e-30
3.16125e-30
3.16125e-30
3.16125e-30
3.16125e-30
3.16125e-30
3.16125e-30
3.16125e-30
3.16125e-30
3.16125e-30
3.16125e-30
3.16125e-30
3.16125e-30
3.16125e-30
3.16125e-30
3.16125e-30
3.16125e-30
3.16125e-30
3.16125e-30
3.16125e-30
3.16125e-30
3.16125e-30
3.16125e-30
3.16125e-30
3.16125e-30
3.16125e-30
3.16125e-30
3.16125e-30
3.16125e-30
3.16125e-30
3.16125e-30
3.16125e-30
3.16125e-30
3.16125e-30
3.16125e-30
3.16125e-30
3.16125e-30
3.16125e-30
3.16125e-30
3.16125e-30
3.16125e-30
3.16125e-30
3.16125e-30
3.16125e-30
3.16125e-30
3.16125e-30
3.16125e-30
3.16125e-30
3.16125e-30
3.16125e-30
3.16125e-30
3.16125e-30
3.16125e-30
3.16125e-30
3.16125e-30
3.16125e-30
3.16125e-30
3.16125e-30
3.16125e-30
3.16125e-30
3.16125e-30
3.16125e-30
3.16125e-30
3.16125e-30
3.16125e-30
3.16125e-30
3.16125e-30
3.16125e-30
3.16125e-30
3.16125e-30
3.16125e-30
3.16125e-30
3.16125e-30
3.16125e-30
3.16125e-30
3.16125e-30
3.16125e-30
3.16125e-30
3.16125e-30
3.16125e-30
3.16125e-30
3.16125e-30
3.16125e-30
3.16125e-30
3.16125e-30
3.16125e-30
3.16125e-30
3.16125e-30
3.16125e-30
3.16125e-30
3.16125e-30
3.16125e-30
3.16125e-30
3.16125e-30
3.16125e-30
3.16125e-30
3.16125e-30
3.16125e-30
3.16125e-30
3.16125e-30
3.16125e-30
3.16125e-30
3.16125e-30
3.16125e-30
3.16125e-30
3.16125e-30
3.16125e-30
3.16125e-30
3.16125e-30
3.16125e-30
3.16125e-30
3.16125e-30
3.16125e-30
3.16125e-30
3.16125e-30
3.16125e-30
3.16125e-30
3.16125e-30
3.16125e-30
3.16125e-30
3.16125e-30
3.16125e-30
3.16125e-30
3.16125e-30
3.16125e-30
3.16125e-30
3.16125e-30
3.16125e-30
3.16125e-30
3.16125e-30
3.16125e-30
3.16125e-30
3.16125e-30
3.16125e-30
3.16125e-30
3.16125e-30
3.16125e-30
3.16125e-30
3.16125e-30
3.16125e-30
3.16125e-30
3.16125e-30
3.16125e-30
3.16125e-30
3.16125e-30
3.16125e-30
3.16125e-30
3.16125e-30
3.16125e-30
3.16125e-30
3.16125e-30
3.16125e-30
3.16125e-30
3.16125e-30
3.16125e-30
3.16125e-30
3.16125e-30
3.16125e-30
3.16125e-30
3.16125e-30
3.16125e-30
3.16125e-30
3.16125e-30
)
;

boundaryField
{
    topWall
    {
        type            zeroGradient;
    }
    bottomWall
    {
        type            zeroGradient;
    }
    sideWallL
    {
        type            symmetry;
    }
    sideWallR
    {
        type            zeroGradient;
    }
    frontAndBack
    {
        type            empty;
    }
}


// ************************************************************************* //
