/*--------------------------------*- C++ -*----------------------------------*\
  =========                 |
  \\      /  F ield         | OpenFOAM: The Open Source CFD Toolbox
   \\    /   O peration     | Website:  https://openfoam.org
    \\  /    A nd           | Version:  7
     \\/     M anipulation  |
\*---------------------------------------------------------------------------*/
FoamFile
{
    version     2.0;
    format      ascii;
    class       volScalarField;
    location    "10";
    object      T;
}
// * * * * * * * * * * * * * * * * * * * * * * * * * * * * * * * * * * * * * //

dimensions      [0 0 0 1 0 0 0];

internalField   nonuniform List<scalar> 
900
(
361.379
361.378
361.376
361.374
361.37
361.363
361.352
361.336
361.31
361.269
361.204
361.102
360.939
360.671
360.218
359.416
357.88
354.557
346.065
319.887
342.313
342.311
342.307
342.299
342.287
342.268
342.238
342.19
342.117
342.001
341.821
341.538
341.088
340.365
339.178
337.176
333.675
327.284
315.163
292.128
326.813
326.81
326.803
326.791
326.773
326.743
326.697
326.625
326.513
326.34
326.073
325.658
325.011
323.998
322.396
319.84
315.722
309.072
298.505
282.76
314.335
314.331
314.322
314.308
314.284
314.247
314.19
314.101
313.965
313.756
313.436
312.95
312.209
311.081
309.369
306.778
302.893
297.182
289.136
278.717
304.396
304.391
304.382
304.366
304.34
304.298
304.235
304.138
303.99
303.767
303.431
302.928
302.181
301.079
299.468
297.143
293.859
289.368
283.543
276.607
296.569
296.564
296.555
296.538
296.511
296.468
296.404
296.306
296.159
295.94
295.615
295.14
294.449
293.46
292.062
290.128
287.524
284.154
280.028
275.363
290.479
290.474
290.465
290.449
290.422
290.382
290.32
290.228
290.091
289.889
289.596
289.174
288.575
287.739
286.593
285.064
283.083
280.625
277.736
274.578
285.8
285.796
285.787
285.772
285.748
285.711
285.655
285.573
285.451
285.275
285.023
284.667
284.173
283.498
282.599
281.433
279.971
278.212
276.207
274.062
282.253
282.249
282.241
282.228
282.207
282.175
282.126
282.056
281.953
281.806
281.598
281.31
280.918
280.394
279.711
278.847
277.791
276.553
275.171
273.716
279.6
279.597
279.59
279.579
279.561
279.534
279.494
279.435
279.352
279.233
279.069
278.844
278.543
278.148
277.644
277.019
276.27
275.41
274.465
273.482
277.644
277.642
277.636
277.627
277.612
277.59
277.558
277.511
277.446
277.353
277.227
277.057
276.832
276.542
276.178
275.735
275.214
274.623
273.983
273.323
276.223
276.221
276.217
276.209
276.197
276.18
276.155
276.119
276.069
275.999
275.905
275.779
275.616
275.408
275.151
274.843
274.485
274.084
273.655
273.215
275.205
275.204
275.2
275.194
275.186
275.172
275.153
275.127
275.089
275.038
274.969
274.879
274.763
274.617
274.439
274.228
273.986
273.718
273.432
273.142
274.488
274.486
274.484
274.479
274.473
274.463
274.449
274.429
274.402
274.365
274.317
274.253
274.172
274.072
273.951
273.809
273.647
273.47
273.283
273.093
273.989
273.988
273.986
273.983
273.978
273.971
273.961
273.947
273.928
273.902
273.868
273.824
273.769
273.702
273.621
273.526
273.42
273.305
273.183
273.06
273.648
273.647
273.646
273.644
273.64
273.635
273.628
273.619
273.605
273.588
273.564
273.535
273.498
273.453
273.4
273.338
273.27
273.195
273.117
273.038
273.418
273.418
273.417
273.415
273.413
273.41
273.405
273.398
273.389
273.377
273.362
273.342
273.318
273.289
273.254
273.215
273.171
273.123
273.074
273.024
273.266
273.266
273.265
273.264
273.263
273.26
273.257
273.253
273.247
273.239
273.229
273.216
273.2
273.182
273.16
273.135
273.107
273.077
273.046
273.015
273.167
273.167
273.166
273.165
273.164
273.163
273.161
273.158
273.154
273.149
273.142
273.134
273.124
273.113
273.099
273.083
273.066
273.047
273.028
273.009
273.103
273.103
273.103
273.102
273.101
273.1
273.099
273.097
273.095
273.092
273.087
273.082
273.076
273.069
273.06
273.051
273.04
273.029
273.017
273.006
273.063
273.063
273.062
273.062
273.062
273.061
273.06
273.059
273.057
273.055
273.053
273.05
273.046
273.041
273.036
273.03
273.024
273.017
273.01
273.003
273.038
273.038
273.037
273.037
273.037
273.037
273.036
273.035
273.034
273.033
273.032
273.03
273.027
273.025
273.022
273.018
273.014
273.01
273.006
273.002
273.022
273.022
273.022
273.022
273.022
273.022
273.021
273.021
273.02
273.019
273.019
273.017
273.016
273.014
273.013
273.011
273.008
273.006
273.004
273.001
273.013
273.013
273.013
273.013
273.013
273.013
273.012
273.012
273.012
273.011
273.011
273.01
273.009
273.008
273.007
273.006
273.005
273.003
273.002
273.001
273.007
273.007
273.007
273.007
273.007
273.007
273.007
273.007
273.007
273.006
273.006
273.006
273.005
273.005
273.004
273.003
273.003
273.002
273.001
273
273.004
273.004
273.004
273.004
273.004
273.004
273.004
273.004
273.004
273.004
273.003
273.003
273.003
273.003
273.002
273.002
273.002
273.001
273.001
273
273.002
273.002
273.002
273.002
273.002
273.002
273.002
273.002
273.002
273.002
273.002
273.002
273.002
273.001
273.001
273.001
273.001
273.001
273
273
273.001
273.001
273.001
273.001
273.001
273.001
273.001
273.001
273.001
273.001
273.001
273.001
273.001
273.001
273.001
273.001
273
273
273
273
273.001
273.001
273.001
273.001
273.001
273.001
273.001
273.001
273.001
273.001
273.001
273.001
273
273
273
273
273
273
273
273
273
273
273
273
273
273
273
273
273
273
273
273
273
273
273
273
273
273
273
273
273
273
273
273
273
273
273
273
273
273
273
273
273
273
273
273
273
273
273
273
273
273
273
273
273
273
273
273
273
273
273
273
273
273
273
273
273
273
273
273
273
273
273
273
273
273
273
273
273
273
273
273
273
273
273
273
273
273
273
273
273
273
273
273
273
273
273
273
273
273
273
273
273
273
273
273
273
273
273
273
273
273
273
273
273
273
273
273
273
273
273
273
273
273
273
273
273
273
273
273
273
273
273
273
273
273
273
273
273
273
273
273
273
273
273
273
273
273
273
273
273
273
273
273
273
273
273
273
273
273
273
273
273
273
273
273
273
273
273
273
273
273
273
273
273
273
273
273
273
273
273
273
273
273
273
273
273
273
273
273
273
273
273
273
273
273
273
273
273
273
273
273
273
273
273
273
273
273
273
273
273
273
273
273
273
273
273
273
273
273
273
273
273
273
273
273
273
273
273
273
273
273
273
273
273
273
273
273
273
273
273
273
273
273
273
273
273
273
273
273
273
273
273
273
273
273
273
273
273
273
273
273
273
273
273
273
273
273
273
273
273
273
273
273
273
273
273
273
273
273
273
273
273
273
273
273
273
273
273
273
273
273
273
273
273
273
273
273
273
273
273
273
273
273
273
273
273
273
273
273
273
273
273
273
273
273
273
273
273
273
273
273
273
273
273
273
273
273
273
273
)
;

boundaryField
{
    topWall
    {
        type            zeroGradient;
    }
    bottomWall
    {
        type            codedFixedValue;
        value           uniform 373;
        name            heating;
        code            #{
            const scalar t = this->db().time().value();
            const scalar Ttemp = 273 + 10*t;
            operator==(Ttemp);
        #};
    }
    sideWallL
    {
        type            symmetry;
    }
    sideWallR
    {
        type            fixedValue;
        value           uniform 273;
    }
    frontAndBack
    {
        type            empty;
    }
}


// ************************************************************************* //
