/*--------------------------------*- C++ -*----------------------------------*\
  =========                 |
  \\      /  F ield         | OpenFOAM: The Open Source CFD Toolbox
   \\    /   O peration     | Website:  https://openfoam.org
    \\  /    A nd           | Version:  7
     \\/     M anipulation  |
\*---------------------------------------------------------------------------*/
FoamFile
{
    version     2.0;
    format      ascii;
    class       volScalarField;
    location    "12";
    object      gradTx;
}
// * * * * * * * * * * * * * * * * * * * * * * * * * * * * * * * * * * * * * //

dimensions      [0 -1 0 1 0 0 0];

internalField   nonuniform List<scalar> 
900
(
-3.55961
-11.2571
-20.7829
-33.6837
-52.0605
-78.9306
-118.777
-178.424
-268.497
-405.97
-618.843
-955.294
-1503.01
-2434.2
-4123.5
-7500.75
-15256
-36451.9
-105546
-360317
-10.2268
-32.329
-59.6392
-96.5476
-148.99
-225.444
-338.417
-506.783
-759.601
-1142.58
-1729.56
-2643.63
-4098.35
-6481.85
-10537.3
-17762.8
-31288.5
-57567.3
-107817
-185837
-15.9633
-50.4256
-92.8854
-150.039
-230.86
-348.03
-520.019
-774.252
-1152.09
-1716.9
-2567.41
-3860.41
-5850.05
-8956.02
-13879
-21777.8
-34455.8
-54188.2
-81714.8
-108463
-20.4026
-64.3805
-118.343
-190.569
-292.022
-437.96
-650.208
-960.466
-1415.25
-2083.33
-3067.08
-4519.61
-6669.93
-9857.17
-14567.9
-21446.1
-31177
-43989.5
-58312.4
-68443.4
-23.3407
-73.5548
-134.857
-216.334
-329.835
-491.55
-724.135
-1059.63
-1543.52
-2240.35
-3241.3
-4673.74
-6711.79
-9583.55
-13562.6
-18914.5
-25740.9
-33635.2
-41125
-45272.5
-24.7499
-77.8781
-142.36
-227.374
-344.683
-510.026
-744.875
-1078.71
-1551.86
-2219.04
-3153.18
-4448.82
-6222.83
-8607.45
-11726.2
-15636.5
-20218.1
-25002.3
-29003.5
-30787.7
-24.7598
-77.7811
-141.723
-225.285
-339.406
-498.391
-721.23
-1033.16
-1467.4
-2066.84
-2885.21
-3986.64
-5441.55
-7315.46
-9645.29
-12397.4
-15405.3
-18300.5
-20489
-21270.1
-23.6145
-74.0547
-134.475
-212.703
-318.391
-463.852
-664.974
-942.168
-1321.2
-1833.68
-2516.6
-3410.16
-4552.36
-5968.48
-7653.41
-9546.04
-11499.3
-13259.4
-14481.3
-14815.7
-21.62
-67.6796
-122.472
-192.74
-286.629
-414.273
-588.369
-824.661
-1142.19
-1563.06
-2111.3
-2810.23
-3677.53
-4717.22
-5908.18
-7190.27
-8452.02
-9528.5
-10221.7
-10352.7
-19.0941
-59.6659
-107.595
-168.475
-248.925
-356.972
-502.377
-696.813
-953.781
-1288.06
-1714.43
-2245.26
-2886.7
-3633.24
-4460.87
-5320.32
-6133.15
-6795.26
-7192.87
-7232.06
-16.3266
-50.9286
-91.5255
-142.605
-209.371
-297.977
-415.68
-570.848
-772.719
-1030.79
-1353.63
-1747.06
-2211.36
-2737.93
-3305.45
-3877.03
-4399.68
-4808.69
-5038.31
-5038.08
-13.5548
-42.2103
-75.6058
-117.237
-171.078
-241.712
-334.38
-454.908
-609.422
-803.789
-1042.69
-1328.26
-1658.29
-2024.18
-2409.05
-2786.65
-3122.09
-3375.44
-3508.44
-3493.46
-10.952
-34.049
-60.793
-93.8357
-136.134
-191.013
-262.168
-353.548
-469.102
-612.323
-785.561
-989.087
-1219.97
-1470.93
-1729.39
-1977.3
-2192.09
-2349.21
-2426.22
-2407.78
-8.62822
-26.7825
-47.6735
-73.2646
-105.704
-147.353
-200.754
-268.525
-353.147
-456.617
-579.969
-722.662
-881.897
-1051.99
-1223.99
-1385.78
-1522.9
-1620.3
-1664.76
-1647.64
-6.63842
-20.5754
-36.5195
-55.8918
-80.221
-111.147
-150.387
-199.64
-260.426
-333.837
-420.213
-518.759
-627.139
-741.158
-854.622
-959.538
-1046.75
-1107.02
-1132.55
-1118.43
-4.9947
-15.4592
-27.3642
-41.7179
-59.5861
-82.0877
-110.36
-145.485
-188.372
-239.586
-299.136
-366.239
-439.092
-514.712
-588.915
-656.505
-711.716
-748.916
-763.461
-752.55
-3.67921
-11.3726
-20.0795
-30.5011
-43.3673
-59.428
-79.4238
-104.032
-133.784
-168.949
-209.405
-254.489
-302.877
-352.51
-400.615
-443.853
-478.623
-501.492
-509.698
-501.635
-2.65601
-8.19977
-14.4432
-21.8652
-30.9572
-42.2135
-56.1092
-73.0613
-93.372
-117.155
-144.254
-174.154
-205.92
-238.162
-269.071
-296.526
-318.293
-332.284
-336.859
-331.094
-1.88064
-5.79937
-10.1925
-15.3816
-21.6921
-29.4449
-38.9404
-50.4311
-64.0848
-79.9378
-97.8439
-117.426
-138.04
-158.769
-178.449
-195.746
-209.282
-217.795
-220.309
-216.295
-1.3071
-4.02643
-7.06194
-10.6261
-14.9311
-20.1821
-26.5665
-34.235
-43.2781
-53.697
-65.3727
-78.0392
-91.2652
-104.454
-116.867
-127.675
-136.032
-141.179
-142.538
-139.805
-0.892318
-2.746
-4.80699
-7.21346
-10.1016
-13.6011
-17.827
-22.8681
-28.7716
-35.5253
-43.04
-51.1337
-59.5233
-67.8272
-75.5821
-82.2762
-87.3965
-90.487
-91.2075
-89.383
-0.598668
-1.84063
-3.21639
-4.81443
-6.72098
-9.01677
-11.7717
-15.0372
-18.8371
-23.1564
-27.9312
-33.0405
-38.3019
-43.4748
-48.2721
-52.381
-55.4924
-57.3345
-57.7075
-56.5114
-0.394936
-1.21321
-2.11652
-3.16071
-4.39961
-5.88284
-7.65231
-9.73749
-12.1497
-14.8755
-17.8712
-21.0578
-24.3199
-27.5078
-30.4456
-32.9443
-34.8186
-35.908
-36.0956
-35.3245
-0.256292
-0.786687
-1.37032
-2.04195
-2.83472
-3.77874
-4.89884
-6.21168
-7.72222
-9.42004
-11.2759
-13.2396
-15.239
-17.1823
-18.963
-20.4677
-21.5868
-22.2257
-22.3166
-21.8274
-0.163675
-0.502031
-0.873245
-1.29863
-1.79835
-2.39042
-3.08941
-3.90458
-4.83786
-5.8817
-7.01717
-8.21272
-9.4241
-10.5957
-11.6638
-12.561
-13.2229
-13.5944
-13.6363
-13.3306
-0.102902
-0.315409
-0.547909
-0.813299
-1.12367
-1.4897
-1.9198
-2.41907
-2.98808
-3.62162
-4.3077
-5.02689
-5.75238
-6.45092
-7.0847
-7.61426
-8.00198
-8.21604
-8.23402
-8.04578
-0.0637078
-0.19515
-0.338589
-0.501724
-0.691715
-0.914805
-1.17581
-1.4775
-1.81987
-2.19949
-2.60892
-3.03636
-3.46582
-3.87764
-4.24967
-4.55898
-4.78386
-4.90607
-4.91286
-4.79861
-0.0388522
-0.118942
-0.206133
-0.304961
-0.419612
-0.553692
-0.709928
-0.889797
-1.09313
-1.31772
-1.55904
-1.81004
-2.0613
-2.30134
-2.51734
-2.6961
-2.82522
-2.89432
-2.89623
-2.82785
-0.0233456
-0.071431
-0.123664
-0.18268
-0.250898
-0.330376
-0.422639
-0.528466
-0.647667
-0.778869
-0.919352
-1.06498
-1.21026
-1.34859
-1.47261
-1.57481
-1.64817
-1.68687
-1.68689
-1.64652
-0.0138249
-0.0422788
-0.0731227
-0.10787
-0.147899
-0.194371
-0.24813
-0.30958
-0.378566
-0.454249
-0.535028
-0.618504
-0.701525
-0.78032
-0.850733
-0.908532
-0.949784
-0.971237
-0.970672
-0.947166
-0.00807014
-0.0246681
-0.0426254
-0.0627996
-0.0859669
-0.112775
-0.143685
-0.178905
-0.218321
-0.261433
-0.307313
-0.354588
-0.401472
-0.445841
-0.485368
-0.517696
-0.540644
-0.552418
-0.551801
-0.538294
-0.00464461
-0.014191
-0.0245005
-0.0360531
-0.0492803
-0.0645393
-0.0820795
-0.102006
-0.124242
-0.148495
-0.174234
-0.200686
-0.22685
-0.251545
-0.273483
-0.291364
-0.303993
-0.310388
-0.309889
-0.302231
-0.00263601
-0.00805066
-0.0138883
-0.0204141
-0.0278652
-0.036436
-0.0462601
-0.0573896
-0.0697756
-0.0832502
-0.0975147
-0.112138
-0.126567
-0.140152
-0.152189
-0.161969
-0.168843
-0.172281
-0.171927
-0.167641
-0.00147554
-0.00450472
-0.00776539
-0.0114022
-0.0155439
-0.0202953
-0.0257267
-0.031864
-0.038677
-0.0460709
-0.0538798
-0.0618669
-0.0697301
-0.0771167
-0.0836453
-0.0889344
-0.0926352
-0.0944638
-0.0942312
-0.091864
-0.000814759
-0.00248651
-0.00428336
-0.00628325
-0.00855527
-0.0111551
-0.0141196
-0.0174612
-0.0211621
-0.0251694
-0.0293925
-0.0337028
-0.0379373
-0.0419068
-0.0454072
-0.0482353
-0.0502056
-0.051168
-0.0510228
-0.0497319
-0.000443866
-0.00135415
-0.00233119
-0.00341649
-0.00464665
-0.00605094
-0.00764847
-0.0094451
-0.0114305
-0.0135758
-0.015832
-0.0181303
-0.0203838
-0.022492
-0.0243472
-0.0258423
-0.0268797
-0.0273808
-0.0272936
-0.0265986
-0.000238607
-0.000727711
-0.00125201
-0.0018333
-0.00249078
-0.00323965
-0.00408968
-0.0050436
-0.0060956
-0.00723007
-0.00842094
-0.00963175
-0.0108168
-0.0119235
-0.0128955
-0.0136768
-0.0142169
-0.014475
-0.0144244
-0.0140549
-0.000126587
-0.000385952
-0.000663638
-0.000970977
-0.00131789
-0.00171219
-0.00215883
-0.00265905
-0.00320963
-0.00380228
-0.00442329
-0.00505362
-0.00566952
-0.00624368
-0.006747
-0.00715071
-0.00742877
-0.00756031
-0.00753161
-0.00733766
-6.62881e-05
-0.000202049
-0.000347234
-0.000507658
-0.000688391
-0.000893409
-0.00112518
-0.00138427
-0.00166893
-0.0019748
-0.00229478
-0.00261903
-0.00293536
-0.00322979
-0.00348744
-0.00369366
-0.00383522
-0.00390152
-0.00388565
-0.0037851
-3.42708e-05
-0.000104435
-0.000179389
-0.000262081
-0.000355073
-0.000460363
-0.000579174
-0.000711748
-0.000857154
-0.00101315
-0.00117608
-0.00134094
-0.00150153
-0.00165078
-0.00178118
-0.00188533
-0.0019566
-0.00198966
-0.00198106
-0.00192957
-1.75063e-05
-5.33356e-05
-9.15731e-05
-0.000133694
-0.000180983
-0.000234429
-0.000294632
-0.000361695
-0.000435131
-0.000513791
-0.000595828
-0.000678722
-0.000759356
-0.000834189
-0.000899469
-0.000951512
-0.000987014
-0.00100333
-0.000998758
-0.000972686
-8.86013e-06
-2.69877e-05
-4.63158e-05
-6.75776e-05
-9.14065e-05
-0.000118294
-0.00014853
-0.000182154
-0.000218918
-0.000258238
-0.000299189
-0.000340511
-0.000380656
-0.00041786
-0.000450267
-0.000476058
-0.000493598
-0.000501588
-0.000499188
-0.000486108
-4.49503e-06
-1.36862e-05
-2.3476e-05
-3.4233e-05
-4.62687e-05
-5.98254e-05
-7.50442e-05
-9.19398e-05
-0.000110386
-0.00013009
-0.000150579
-0.000171226
-0.00019126
-0.000209801
-0.000225929
-0.000238741
-0.000247429
-0.00025135
-0.000250093
-0.000243515
-2.39117e-06
-7.28025e-06
-1.24829e-05
-1.81916e-05
-2.45682e-05
-3.1738e-05
-3.97726e-05
-4.86764e-05
-5.83826e-05
-6.87371e-05
-7.94873e-05
-9.03066e-05
-0.000100792
-0.000110481
-0.000118897
-0.00012557
-0.000130082
-0.000132101
-0.00013141
-0.00012794
-1.54787e-06
-4.70781e-06
-8.06968e-06
-1.1755e-05
-1.58622e-05
-2.04772e-05
-2.5641e-05
-3.13528e-05
-3.75713e-05
-4.41977e-05
-5.10698e-05
-5.79792e-05
-6.46667e-05
-7.08397e-05
-7.61945e-05
-8.04327e-05
-8.32932e-05
-8.45634e-05
-8.41044e-05
-8.18761e-05
)
;

boundaryField
{
    topWall
    {
        type            calculated;
        value           nonuniform List<scalar> 
20
(
-1.54787e-06
-4.70781e-06
-8.06968e-06
-1.1755e-05
-1.58622e-05
-2.04772e-05
-2.5641e-05
-3.13528e-05
-3.75713e-05
-4.41977e-05
-5.10698e-05
-5.79792e-05
-6.46667e-05
-7.08397e-05
-7.61945e-05
-8.04327e-05
-8.32932e-05
-8.45634e-05
-8.41044e-05
-8.18761e-05
)
;
    }
    bottomWall
    {
        type            calculated;
        value           nonuniform List<scalar> 
20
(
-3.55961
-11.2571
-20.7829
-33.6837
-52.0605
-78.9306
-118.777
-178.424
-268.497
-405.97
-618.843
-955.294
-1503.01
-2434.2
-4123.5
-7500.75
-15256
-36451.9
-105546
-360317
)
;
    }
    sideWallL
    {
        type            symmetry;
    }
    sideWallR
    {
        type            calculated;
        value           nonuniform List<scalar> 
45
(
-561713
-231018
-119611
-71403.8
-46047.1
-30926.9
-21221.5
-14721
-10258.6
-7152.66
-4975.73
-3446.49
-2373.38
-1622.98
-1101.07
-740.521
-493.422
-325.564
-212.621
-137.397
-87.8243
-55.5155
-34.6964
-21.4362
-13.09
-7.89967
-4.71099
-2.77598
-1.61619
-0.92965
-0.528306
-0.296606
-0.164513
-0.0901452
-0.0487994
-0.0260989
-0.0137904
-0.00719933
-0.00371363
-0.00189309
-0.000954274
-0.000476897
-0.000238897
-0.000125511
-8.03209e-05
)
;
    }
    frontAndBack
    {
        type            empty;
    }
}


// ************************************************************************* //
