/*--------------------------------*- C++ -*----------------------------------*\
  =========                 |
  \\      /  F ield         | OpenFOAM: The Open Source CFD Toolbox
   \\    /   O peration     | Website:  https://openfoam.org
    \\  /    A nd           | Version:  7
     \\/     M anipulation  |
\*---------------------------------------------------------------------------*/
FoamFile
{
    version     2.0;
    format      ascii;
    class       volScalarField;
    location    "12";
    object      gradTy;
}
// * * * * * * * * * * * * * * * * * * * * * * * * * * * * * * * * * * * * * //

dimensions      [0 -1 0 1 0 0 0];

internalField   nonuniform List<scalar> 
900
(
-117519
-117533
-117562
-117613
-117693
-117814
-117997
-118271
-118682
-119299
-120231
-121648
-123830
-127249
-132746
-141910
-158009
-188454
-252029
-401817
-97557.6
-97570
-97596.7
-97642.1
-97713.1
-97820.9
-97982.2
-98222.1
-98578
-99105.7
-99888.9
-101054
-102794
-105401
-109316
-115157
-123593
-134357
-141329
-110525
-80400.3
-80410.5
-80432.4
-80469.2
-80526.4
-80612.3
-80738.9
-80924
-81192.6
-81579.7
-82133.4
-82917.2
-84009.3
-85488.8
-87384.7
-89519.4
-91068
-89407.9
-77490.1
-39903.5
-65732.7
-65740.1
-65755.9
-65782.1
-65822.1
-65881
-65965.7
-66085.2
-66251
-66476.6
-66774.5
-67150.5
-67587.8
-68012.2
-68215.4
-67695.8
-65352.1
-58980.8
-44799
-18391.1
-53277.3
-53281.7
-53290.8
-53305.7
-53327.6
-53358.3
-53399.7
-53453
-53517.9
-53589.6
-53653.6
-53675.7
-53582.9
-53228.6
-52333.1
-50387
-46523.6
-39428.1
-27536.4
-10119.2
-42782.8
-42784.2
-42787
-42791.1
-42796
-42800.6
-42802.8
-42797.7
-42776.3
-42721.6
-42602.8
-42365.5
-41915.7
-41095.3
-39647.6
-37178
-33130.6
-26842.4
-17795.9
-6206.39
-34018.2
-34017.1
-34014.4
-34009.2
-33999.7
-33982.9
-33953.6
-33903
-33817
-33672.3
-33431.6
-33035.8
-32393
-31365.3
-29754
-27292.5
-23663.5
-18573.6
-11920.6
-4051.45
-26769.6
-26766.5
-26759.5
-26747.2
-26727
-26694.4
-26642.8
-26561.6
-26434.3
-26236.4
-25930.6
-25462.4
-24754.1
-23698.4
-22155.9
-19961.3
-16948.7
-13008.1
-8176.72
-2740.71
-20837.9
-20833.4
-20823.5
-20806.5
-20779.3
-20737.1
-20672.4
-20574.5
-20427.1
-20207.1
-19881.5
-19404.9
-18716.6
-17739.2
-16381.3
-14546.7
-12155.6
-9180.53
-5691.5
-1892.09
-16038.7
-16033.4
-16021.9
-16002.4
-15971.8
-15925.2
-15855.5
-15752.5
-15601.7
-15383
-15069.4
-14625.3
-14006.2
-13159.2
-12026.9
-10556.4
-8713.69
-6504.11
-3993.88
-1320.73
-12201.7
-12196.2
-12184.3
-12164.2
-12133
-12086.4
-12017.8
-11918.4
-11775.9
-11574
-11291.6
-10902.3
-10374.6
-9673.84
-8765.54
-7622.03
-6231.87
-4610.98
-2812.05
-926.544
-9172.27
-9166.89
-9155.39
-9136.16
-9106.62
-9062.92
-8999.66
-8909.41
-8782.36
-8605.79
-8363.89
-8037.72
-7605.92
-7046.33
-6338.92
-5470.26
-4439.19
-3262.68
-1979.71
-650.588
-6811.06
-6806.14
-6795.64
-6778.2
-6751.66
-6712.83
-6657.3
-6579.2
-6470.92
-6322.93
-6123.75
-5860.21
-5518.15
-5083.82
-4545.96
-3898.76
-3145.09
-2299.56
-1389.94
-455.876
-4995
-4990.68
-4981.52
-4966.41
-4943.58
-4910.5
-4863.71
-4798.72
-4709.81
-4590.04
-4431.32
-4224.69
-3960.99
-3631.86
-3231.22
-2757.09
-2213.46
-1611.75
-971.276
-318.077
-3617.04
-3613.41
-3605.72
-3593.1
-3574.17
-3546.98
-3508.9
-3456.58
-3385.86
-3291.81
-3168.83
-3010.98
-2812.41
-2568.17
-2275.13
-1933.09
-1545.86
-1121.91
-674.479
-220.616
-2585.83
-2582.87
-2576.62
-2566.43
-2551.23
-2529.57
-2499.51
-2458.61
-2403.9
-2331.97
-2239.02
-2121.16
-1974.75
-1796.9
-1586.1
-1342.89
-1070.41
-774.766
-464.881
-151.911
-1824.8
-1822.46
-1817.54
-1809.54
-1797.69
-1780.91
-1757.82
-1726.66
-1685.39
-1631.66
-1562.96
-1476.78
-1370.88
-1243.61
-1094.33
-923.765
-734.349
-530.341
-317.717
-103.739
-1271.04
-1269.24
-1265.46
-1259.35
-1250.34
-1237.68
-1220.36
-1197.19
-1166.76
-1127.49
-1077.75
-1015.93
-940.685
-851.096
-746.945
-628.93
-498.837
-359.589
-215.14
-70.2002
-873.755
-872.406
-869.582
-865.025
-858.342
-848.999
-836.311
-819.456
-797.485
-769.362
-734.026
-690.481
-637.911
-575.826
-504.203
-423.623
-335.352
-241.362
-144.247
-47.0418
-592.765
-591.777
-589.712
-586.391
-581.543
-574.801
-565.7
-553.687
-538.137
-518.374
-493.724
-463.57
-427.432
-385.053
-336.49
-282.187
-223.02
-160.301
-95.7127
-31.1992
-396.841
-396.133
-394.655
-392.287
-388.844
-384.077
-377.678
-369.282
-358.48
-344.841
-327.94
-307.4
-282.941
-254.436
-221.962
-185.841
-146.668
-105.301
-62.8235
-20.4703
-262.167
-261.669
-260.634
-258.979
-256.581
-253.277
-248.863
-243.102
-235.732
-226.48
-215.083
-201.312
-185.007
-166.108
-144.687
-120.972
-95.3555
-68.3938
-40.7765
-13.282
-170.906
-170.564
-169.852
-168.718
-167.08
-164.831
-161.842
-157.958
-153.016
-146.844
-139.28
-130.188
-119.479
-107.125
-93.1863
-77.8163
-61.273
-43.9107
-26.1641
-8.51984
-109.939
-109.708
-109.228
-108.464
-107.366
-105.863
-103.873
-101.3
-98.0403
-93.9884
-89.0465
-83.1343
-76.2013
-68.2385
-59.2893
-49.4567
-38.906
-27.8609
-16.5923
-5.40159
-69.7847
-69.6313
-69.3134
-68.8089
-68.0847
-67.0978
-65.7957
-64.1188
-62.0031
-59.3846
-56.2047
-52.4164
-47.992
-42.9298
-37.2606
-31.0515
-24.4072
-17.4667
-10.3975
-3.38412
-43.7107
-43.6107
-43.4038
-43.0761
-42.6069
-41.9694
-41.1313
-40.0558
-38.7042
-37.0378
-35.022
-32.6296
-29.8456
-26.6713
-23.1275
-19.2572
-15.1255
-10.8182
-6.43724
-2.09475
-27.0173
-26.9532
-26.8208
-26.6114
-26.3125
-25.9074
-25.3765
-24.6975
-23.8472
-22.8026
-21.5433
-20.0539
-18.3264
-16.3628
-14.1769
-11.7955
-9.25872
-6.61871
-3.937
-1.28092
-16.479
-16.4387
-16.3553
-16.2237
-16.0363
-15.7829
-15.4518
-15.0298
-14.5028
-13.8576
-13.0822
-12.168
-11.1108
-9.91243
-8.58175
-7.13536
-5.59758
-3.99968
-2.37838
-0.773702
-9.91909
-9.89406
-9.84243
-9.76105
-9.64534
-9.48934
-9.28601
-9.02754
-8.7058
-8.31298
-7.84232
-7.28897
-6.65078
-5.92919
-5.12976
-4.26258
-3.34219
-2.38714
-1.41911
-0.461581
-5.8922
-5.87692
-5.84543
-5.79588
-5.72555
-5.63095
-5.50795
-5.352
-5.15839
-4.92265
-4.64096
-4.31062
-3.93057
-3.50182
-3.02782
-2.51459
-1.97071
-1.40706
-0.836256
-0.27197
-3.45435
-3.44517
-3.42626
-3.39655
-3.35444
-3.29793
-3.22461
-3.13188
-3.01704
-2.87755
-2.71128
-2.51676
-2.29347
-2.04209
-1.76469
-1.46483
-1.14752
-0.819044
-0.486674
-0.158261
-1.99875
-1.99332
-1.98213
-1.96458
-1.93975
-1.90648
-1.86341
-1.80905
-1.74189
-1.66051
-1.56371
-1.45071
-1.32126
-1.1758
-1.01557
-0.842623
-0.659842
-0.470822
-0.279705
-0.0909482
-1.1415
-1.13833
-1.13181
-1.1216
-1.10716
-1.08786
-1.06292
-1.03151
-0.992778
-0.945943
-0.890354
-0.825589
-0.751535
-0.668469
-0.577106
-0.478631
-0.374677
-0.267273
-0.158752
-0.0516152
-0.643493
-0.641671
-0.637929
-0.632067
-0.623798
-0.612757
-0.598517
-0.580616
-0.558588
-0.532003
-0.500508
-0.46388
-0.422073
-0.375251
-0.323827
-0.26847
-0.210094
-0.149832
-0.0889812
-0.0289283
-0.358085
-0.357053
-0.354934
-0.351619
-0.346949
-0.340722
-0.332704
-0.322643
-0.310285
-0.295397
-0.27779
-0.257349
-0.234054
-0.208003
-0.179429
-0.148705
-0.116337
-0.0829492
-0.0492538
-0.0160116
-0.196712
-0.196135
-0.194953
-0.193104
-0.190503
-0.18704
-0.182587
-0.17701
-0.17017
-0.161943
-0.15223
-0.140972
-0.128159
-0.113851
-0.0981762
-0.0813394
-0.0636177
-0.0453507
-0.0269248
-0.00875226
-0.106685
-0.106368
-0.105717
-0.1047
-0.103271
-0.101372
-0.0989326
-0.0958819
-0.0921466
-0.087661
-0.0823731
-0.0762522
-0.0692964
-0.061538
-0.0530481
-0.0439378
-0.0343565
-0.0244869
-0.0145361
-0.00472489
-0.0571259
-0.0569536
-0.0566002
-0.0560488
-0.0552746
-0.0542464
-0.0529284
-0.0512819
-0.049269
-0.0468552
-0.0440137
-0.0407291
-0.037001
-0.0328476
-0.0283073
-0.0234396
-0.0183241
-0.0130579
-0.00775062
-0.00251918
-0.0302018
-0.0301095
-0.0299203
-0.0296253
-0.0292114
-0.0286624
-0.0279596
-0.0270828
-0.0260123
-0.0247303
-0.0232231
-0.0214831
-0.0195104
-0.0173151
-0.0149176
-0.0123493
-0.00965218
-0.0068771
-0.00408153
-0.00132656
-0.0157641
-0.0157153
-0.0156153
-0.0154596
-0.0152414
-0.0149522
-0.0145824
-0.0141217
-0.0135598
-0.0128879
-0.0120988
-0.0111889
-0.0101585
-0.00901291
-0.00776291
-0.00642493
-0.00502076
-0.00357673
-0.00212257
-0.00068984
-0.00811863
-0.00809322
-0.00804118
-0.00796014
-0.00784668
-0.00769648
-0.00750461
-0.00726583
-0.00697501
-0.00662759
-0.00622011
-0.00575071
-0.00521968
-0.00462983
-0.00398676
-0.00329892
-0.00257748
-0.00183592
-0.00108941
-0.000354048
-0.00411413
-0.00410112
-0.00407449
-0.00403303
-0.00397502
-0.00389831
-0.00380042
-0.00367872
-0.00353066
-0.00335398
-0.00314696
-0.00290873
-0.00263947
-0.00234063
-0.00201508
-0.00166709
-0.00130231
-0.00092751
-0.000550327
-0.000178844
-0.00202651
-0.00202004
-0.0020068
-0.00198621
-0.00195742
-0.00191937
-0.00187086
-0.00181061
-0.00173738
-0.00165008
-0.00154788
-0.00143038
-0.00129768
-0.00115051
-0.000990297
-0.000819141
-0.000639809
-0.000455624
-0.000270322
-8.78463e-05
-0.000916582
-0.000913635
-0.000907604
-0.000898228
-0.000885125
-0.000867822
-0.000845777
-0.000818419
-0.00078519
-0.000745604
-0.000699298
-0.000646095
-0.000586051
-0.000519502
-0.00044709
-0.000369768
-0.000288783
-0.000205632
-0.000121995
-3.9644e-05
-0.000261542
-0.000260699
-0.00025897
-0.000256286
-0.000252533
-0.00024758
-0.000241273
-0.000233448
-0.00022395
-0.000212637
-0.00019941
-0.00018422
-0.000167082
-0.000148095
-0.000127441
-0.000105392
-8.23035e-05
-5.86035e-05
-3.47661e-05
-1.12977e-05
)
;

boundaryField
{
    topWall
    {
        type            calculated;
        value           uniform 0;
    }
    bottomWall
    {
        type            calculated;
        value           nonuniform List<scalar> 
20
(
-128243
-128257
-128288
-128340
-128422
-128548
-128738
-129023
-129452
-130097
-131076
-132573
-134897
-138585
-144634
-155079
-174637
-216103
-320444
-638287
)
;
    }
    sideWallL
    {
        type            symmetry;
    }
    sideWallR
    {
        type            calculated;
        value           nonuniform List<scalar> 
45
(
-401817
-110525
-39903.5
-18391.1
-10119.2
-6206.39
-4051.45
-2740.71
-1892.09
-1320.73
-926.544
-650.588
-455.876
-318.077
-220.616
-151.911
-103.739
-70.2002
-47.0418
-31.1992
-20.4703
-13.282
-8.51984
-5.40159
-3.38412
-2.09475
-1.28092
-0.773702
-0.461581
-0.27197
-0.158261
-0.0909482
-0.0516152
-0.0289283
-0.0160116
-0.00875226
-0.00472489
-0.00251918
-0.00132656
-0.00068984
-0.000354048
-0.000178844
-8.78463e-05
-3.9644e-05
-1.12977e-05
)
;
    }
    frontAndBack
    {
        type            empty;
    }
}


// ************************************************************************* //
