/*--------------------------------*- C++ -*----------------------------------*\
  =========                 |
  \\      /  F ield         | OpenFOAM: The Open Source CFD Toolbox
   \\    /   O peration     | Website:  https://openfoam.org
    \\  /    A nd           | Version:  7
     \\/     M anipulation  |
\*---------------------------------------------------------------------------*/
FoamFile
{
    version     2.0;
    format      ascii;
    class       volScalarField;
    location    "12";
    object      rhoc;
}
// * * * * * * * * * * * * * * * * * * * * * * * * * * * * * * * * * * * * * //

dimensions      [1 -3 0 0 0 0 0];

internalField   nonuniform List<scalar> 
900
(
1.46907e-18
1.46871e-18
1.46795e-18
1.46663e-18
1.46454e-18
1.4613e-18
1.45636e-18
1.44884e-18
1.43746e-18
1.42022e-18
1.3941e-18
1.35452e-18
1.29447e-18
1.20342e-18
1.066e-18
8.62044e-19
5.75465e-19
2.397e-19
2.41998e-20
1.06003e-23
1.14751e-20
1.14663e-20
1.14473e-20
1.14148e-20
1.13631e-20
1.12837e-20
1.11633e-20
1.09825e-20
1.07131e-20
1.03154e-20
9.73505e-21
8.90383e-21
7.74739e-21
6.21455e-21
4.34578e-21
2.38544e-21
8.33182e-22
1.18245e-22
2.49922e-24
1.0329e-27
1.40154e-22
1.39973e-22
1.39582e-22
1.38913e-22
1.37858e-22
1.36244e-22
1.33823e-22
1.30235e-22
1.24991e-22
1.17457e-22
1.06895e-22
9.26133e-23
7.43448e-23
5.29261e-23
3.10822e-23
1.33259e-23
3.38286e-24
3.57051e-25
9.23234e-27
4.56529e-29
2.83531e-24
2.83038e-24
2.81971e-24
2.80155e-24
2.77301e-24
2.72971e-24
2.66535e-24
2.57128e-24
2.43632e-24
2.24735e-24
1.99158e-24
1.66208e-24
1.26743e-24
8.43544e-25
4.57067e-25
1.81618e-25
4.55225e-26
5.94402e-27
3.52424e-28
1.3378e-29
9.84456e-26
9.82444e-26
9.78096e-26
9.70723e-26
9.59193e-26
9.41817e-26
9.1622e-26
8.79252e-26
8.27041e-26
7.55403e-26
6.60948e-26
5.43202e-26
4.07683e-26
2.68493e-26
1.46865e-26
6.20988e-27
1.86877e-27
3.76053e-28
5.33558e-29
7.4818e-30
5.95767e-27
5.94484e-27
5.91716e-27
5.87037e-27
5.79752e-27
5.68837e-27
5.52878e-27
5.30041e-27
4.98149e-27
4.54973e-27
3.98904e-27
3.30112e-27
2.52027e-27
1.72304e-27
1.01711e-27
4.98336e-28
1.96593e-28
6.28827e-29
1.78568e-29
5.46997e-30
6.27994e-28
6.26707e-28
6.23935e-28
6.19261e-28
6.12011e-28
6.01198e-28
5.85474e-28
5.63114e-28
5.32096e-28
4.90374e-28
4.36462e-28
3.70389e-28
2.9487e-28
2.16054e-28
1.42802e-28
8.37824e-29
4.35238e-29
2.05345e-29
9.38492e-30
4.55722e-30
1.13263e-28
1.13063e-28
1.12635e-28
1.11913e-28
1.10798e-28
1.0914e-28
1.06738e-28
1.03334e-28
9.86269e-29
9.23017e-29
8.41077e-29
7.39762e-29
6.21684e-29
4.93884e-29
3.67481e-29
2.54994e-29
1.65933e-29
1.0333e-29
6.37974e-30
4.07635e-30
3.32945e-29
3.32488e-29
3.31506e-29
3.29857e-29
3.27313e-29
3.23542e-29
3.18095e-29
3.10394e-29
2.9975e-29
2.85423e-29
2.66752e-29
2.43369e-29
2.15485e-29
1.84137e-29
1.51261e-29
1.19396e-29
9.10268e-30
6.78452e-30
5.03519e-30
3.80047e-30
1.45983e-29
1.45837e-29
1.45525e-29
1.45001e-29
1.44194e-29
1.43003e-29
1.41286e-29
1.38864e-29
1.35518e-29
1.31005e-29
1.25092e-29
1.17601e-29
1.0849e-29
9.79253e-30
8.63293e-30
7.43567e-30
6.27794e-30
5.23087e-30
4.34323e-30
3.63395e-30
8.56189e-30
8.5559e-30
8.54307e-30
8.52162e-30
8.48872e-30
8.44026e-30
8.37065e-30
8.27271e-30
8.13765e-30
7.95549e-30
7.71599e-30
7.41034e-30
7.03355e-30
6.58724e-30
6.08195e-30
5.53772e-30
4.98208e-30
4.44541e-30
3.95503e-30
3.53032e-30
6.09616e-30
6.09321e-30
6.0869e-30
6.07638e-30
6.0603e-30
6.0367e-30
6.00296e-30
5.95565e-30
5.89062e-30
5.80307e-30
5.68795e-30
5.54056e-30
5.35754e-30
5.13801e-30
4.8847e-30
4.60461e-30
4.30874e-30
4.01084e-30
3.72528e-30
3.46464e-30
4.91234e-30
4.91069e-30
4.90719e-30
4.90136e-30
4.89248e-30
4.87951e-30
4.86105e-30
4.83531e-30
4.80007e-30
4.75281e-30
4.69081e-30
4.61144e-30
4.51265e-30
4.39344e-30
4.25446e-30
4.09844e-30
3.93022e-30
3.75645e-30
3.58475e-30
3.42261e-30
4.27972e-30
4.27873e-30
4.27662e-30
4.27312e-30
4.26782e-30
4.26012e-30
4.24921e-30
4.23407e-30
4.21348e-30
4.18599e-30
4.15007e-30
4.10422e-30
4.0472e-30
3.97829e-30
3.8976e-30
3.80629e-30
3.70671e-30
3.60227e-30
3.4971e-30
3.39559e-30
3.91743e-30
3.9168e-30
3.91546e-30
3.91326e-30
3.90994e-30
3.90513e-30
3.89837e-30
3.88904e-30
3.87643e-30
3.85969e-30
3.83793e-30
3.81027e-30
3.77599e-30
3.73461e-30
3.68613e-30
3.63111e-30
3.57075e-30
3.50689e-30
3.44187e-30
3.37822e-30
3.70071e-30
3.7003e-30
3.69943e-30
3.69801e-30
3.69586e-30
3.69278e-30
3.68847e-30
3.68257e-30
3.67463e-30
3.66416e-30
3.65064e-30
3.63354e-30
3.61244e-30
3.58705e-30
3.55736e-30
3.52366e-30
3.48661e-30
3.44725e-30
3.40691e-30
3.36709e-30
3.56764e-30
3.56737e-30
3.5668e-30
3.56587e-30
3.56447e-30
3.56247e-30
3.55968e-30
3.55589e-30
3.55083e-30
3.5442e-30
3.53569e-30
3.52499e-30
3.51184e-30
3.4961e-30
3.47775e-30
3.45695e-30
3.4341e-30
3.40979e-30
3.38479e-30
3.35998e-30
3.48478e-30
3.4846e-30
3.48422e-30
3.48361e-30
3.48269e-30
3.48138e-30
3.47958e-30
3.47714e-30
3.4739e-30
3.46968e-30
3.4643e-30
3.45757e-30
3.44936e-30
3.43957e-30
3.4282e-30
3.41535e-30
3.40126e-30
3.38626e-30
3.37083e-30
3.35547e-30
3.43287e-30
3.43275e-30
3.4325e-30
3.4321e-30
3.4315e-30
3.43065e-30
3.42948e-30
3.42791e-30
3.42584e-30
3.42316e-30
3.41976e-30
3.41554e-30
3.41042e-30
3.40434e-30
3.39732e-30
3.3894e-30
3.38074e-30
3.37154e-30
3.36207e-30
3.35263e-30
3.40034e-30
3.40026e-30
3.4001e-30
3.39984e-30
3.39945e-30
3.3989e-30
3.39815e-30
3.39714e-30
3.39583e-30
3.39414e-30
3.39201e-30
3.38937e-30
3.38619e-30
3.38244e-30
3.37812e-30
3.37328e-30
3.36799e-30
3.36238e-30
3.3566e-30
3.35085e-30
3.38003e-30
3.37998e-30
3.37988e-30
3.37971e-30
3.37946e-30
3.3791e-30
3.37863e-30
3.37799e-30
3.37716e-30
3.37611e-30
3.37478e-30
3.37315e-30
3.37119e-30
3.36889e-30
3.36626e-30
3.36331e-30
3.36011e-30
3.35671e-30
3.35323e-30
3.34975e-30
3.36743e-30
3.3674e-30
3.36733e-30
3.36723e-30
3.36707e-30
3.36685e-30
3.36655e-30
3.36615e-30
3.36563e-30
3.36498e-30
3.36416e-30
3.36316e-30
3.36197e-30
3.36057e-30
3.35898e-30
3.3572e-30
3.35528e-30
3.35324e-30
3.35116e-30
3.34908e-30
3.35969e-30
3.35967e-30
3.35962e-30
3.35955e-30
3.35946e-30
3.35932e-30
3.35913e-30
3.35888e-30
3.35857e-30
3.35817e-30
3.35767e-30
3.35706e-30
3.35634e-30
3.3555e-30
3.35455e-30
3.35349e-30
3.35234e-30
3.35114e-30
3.3499e-30
3.34867e-30
3.35496e-30
3.35495e-30
3.35493e-30
3.35488e-30
3.35482e-30
3.35474e-30
3.35462e-30
3.35447e-30
3.35428e-30
3.35404e-30
3.35374e-30
3.35337e-30
3.35294e-30
3.35244e-30
3.35188e-30
3.35125e-30
3.35058e-30
3.34987e-30
3.34915e-30
3.34842e-30
3.35212e-30
3.35211e-30
3.35209e-30
3.35207e-30
3.35203e-30
3.35198e-30
3.35191e-30
3.35182e-30
3.3517e-30
3.35156e-30
3.35138e-30
3.35117e-30
3.35091e-30
3.35062e-30
3.35029e-30
3.34992e-30
3.34953e-30
3.34912e-30
3.3487e-30
3.34828e-30
3.35042e-30
3.35042e-30
3.35041e-30
3.35039e-30
3.35037e-30
3.35034e-30
3.3503e-30
3.35024e-30
3.35017e-30
3.35009e-30
3.34998e-30
3.34986e-30
3.34971e-30
3.34954e-30
3.34935e-30
3.34914e-30
3.34891e-30
3.34867e-30
3.34843e-30
3.34819e-30
3.34942e-30
3.34942e-30
3.34941e-30
3.3494e-30
3.34939e-30
3.34937e-30
3.34935e-30
3.34932e-30
3.34928e-30
3.34923e-30
3.34916e-30
3.34909e-30
3.34901e-30
3.34891e-30
3.3488e-30
3.34868e-30
3.34855e-30
3.34841e-30
3.34828e-30
3.34814e-30
3.34884e-30
3.34884e-30
3.34883e-30
3.34883e-30
3.34882e-30
3.34881e-30
3.34879e-30
3.34878e-30
3.34875e-30
3.34873e-30
3.34869e-30
3.34865e-30
3.3486e-30
3.34854e-30
3.34848e-30
3.34841e-30
3.34834e-30
3.34827e-30
3.34819e-30
3.34811e-30
3.3485e-30
3.3485e-30
3.3485e-30
3.3485e-30
3.34849e-30
3.34849e-30
3.34848e-30
3.34847e-30
3.34845e-30
3.34844e-30
3.34842e-30
3.34839e-30
3.34837e-30
3.34834e-30
3.3483e-30
3.34826e-30
3.34822e-30
3.34818e-30
3.34814e-30
3.3481e-30
3.34831e-30
3.34831e-30
3.34831e-30
3.34831e-30
3.34831e-30
3.3483e-30
3.3483e-30
3.34829e-30
3.34828e-30
3.34828e-30
3.34826e-30
3.34825e-30
3.34824e-30
3.34822e-30
3.3482e-30
3.34818e-30
3.34816e-30
3.34813e-30
3.34811e-30
3.34809e-30
3.3482e-30
3.3482e-30
3.3482e-30
3.3482e-30
3.3482e-30
3.3482e-30
3.3482e-30
3.34819e-30
3.34819e-30
3.34818e-30
3.34818e-30
3.34817e-30
3.34816e-30
3.34815e-30
3.34814e-30
3.34813e-30
3.34812e-30
3.34811e-30
3.34809e-30
3.34808e-30
3.34815e-30
3.34814e-30
3.34814e-30
3.34814e-30
3.34814e-30
3.34814e-30
3.34814e-30
3.34814e-30
3.34814e-30
3.34813e-30
3.34813e-30
3.34813e-30
3.34812e-30
3.34812e-30
3.34811e-30
3.34811e-30
3.3481e-30
3.34809e-30
3.34808e-30
3.34808e-30
3.34811e-30
3.34811e-30
3.34811e-30
3.34811e-30
3.34811e-30
3.34811e-30
3.34811e-30
3.34811e-30
3.34811e-30
3.34811e-30
3.3481e-30
3.3481e-30
3.3481e-30
3.3481e-30
3.34809e-30
3.34809e-30
3.34809e-30
3.34808e-30
3.34808e-30
3.34808e-30
3.34809e-30
3.34809e-30
3.34809e-30
3.34809e-30
3.34809e-30
3.34809e-30
3.34809e-30
3.34809e-30
3.34809e-30
3.34809e-30
3.34809e-30
3.34809e-30
3.34809e-30
3.34809e-30
3.34808e-30
3.34808e-30
3.34808e-30
3.34808e-30
3.34808e-30
3.34808e-30
3.34809e-30
3.34809e-30
3.34809e-30
3.34808e-30
3.34808e-30
3.34808e-30
3.34808e-30
3.34808e-30
3.34808e-30
3.34808e-30
3.34808e-30
3.34808e-30
3.34808e-30
3.34808e-30
3.34808e-30
3.34808e-30
3.34808e-30
3.34808e-30
3.34808e-30
3.34808e-30
3.34808e-30
3.34808e-30
3.34808e-30
3.34808e-30
3.34808e-30
3.34808e-30
3.34808e-30
3.34808e-30
3.34808e-30
3.34808e-30
3.34808e-30
3.34808e-30
3.34808e-30
3.34808e-30
3.34808e-30
3.34808e-30
3.34808e-30
3.34808e-30
3.34808e-30
3.34808e-30
3.34808e-30
3.34808e-30
3.34808e-30
3.34808e-30
3.34808e-30
3.34808e-30
3.34808e-30
3.34808e-30
3.34808e-30
3.34808e-30
3.34808e-30
3.34808e-30
3.34808e-30
3.34808e-30
3.34808e-30
3.34808e-30
3.34808e-30
3.34808e-30
3.34808e-30
3.34807e-30
3.34808e-30
3.34808e-30
3.34808e-30
3.34808e-30
3.34808e-30
3.34808e-30
3.34808e-30
3.34808e-30
3.34808e-30
3.34808e-30
3.34808e-30
3.34808e-30
3.34808e-30
3.34808e-30
3.34808e-30
3.34808e-30
3.34808e-30
3.34808e-30
3.34807e-30
3.34807e-30
3.34808e-30
3.34808e-30
3.34808e-30
3.34808e-30
3.34808e-30
3.34808e-30
3.34808e-30
3.34808e-30
3.34808e-30
3.34808e-30
3.34808e-30
3.34808e-30
3.34808e-30
3.34808e-30
3.34808e-30
3.34808e-30
3.34807e-30
3.34807e-30
3.34807e-30
3.34807e-30
3.34808e-30
3.34808e-30
3.34808e-30
3.34808e-30
3.34808e-30
3.34808e-30
3.34808e-30
3.34808e-30
3.34808e-30
3.34808e-30
3.34808e-30
3.34808e-30
3.34807e-30
3.34807e-30
3.34807e-30
3.34807e-30
3.34807e-30
3.34807e-30
3.34807e-30
3.34807e-30
3.34807e-30
3.34807e-30
3.34807e-30
3.34807e-30
3.34807e-30
3.34807e-30
3.34807e-30
3.34807e-30
3.34807e-30
3.34807e-30
3.34807e-30
3.34807e-30
3.34807e-30
3.34807e-30
3.34807e-30
3.34807e-30
3.34807e-30
3.34807e-30
3.34807e-30
3.34807e-30
3.34807e-30
3.34807e-30
3.34807e-30
3.34807e-30
3.34807e-30
3.34807e-30
3.34807e-30
3.34807e-30
3.34807e-30
3.34807e-30
3.34807e-30
3.34807e-30
3.34807e-30
3.34807e-30
3.34807e-30
3.34807e-30
3.34807e-30
3.34807e-30
3.34807e-30
3.34807e-30
3.34807e-30
3.34807e-30
3.34807e-30
3.34807e-30
3.34807e-30
3.34807e-30
3.34807e-30
3.34807e-30
3.34807e-30
3.34807e-30
3.34807e-30
3.34807e-30
3.34807e-30
3.34807e-30
3.34807e-30
3.34807e-30
3.34807e-30
3.34807e-30
3.34807e-30
3.34807e-30
3.34807e-30
3.34807e-30
3.34807e-30
3.34807e-30
3.34807e-30
3.34807e-30
3.34807e-30
3.34807e-30
3.34807e-30
3.34807e-30
3.34807e-30
3.34807e-30
3.34807e-30
3.34807e-30
3.34807e-30
3.34807e-30
3.34807e-30
3.34807e-30
3.34807e-30
3.34807e-30
3.34807e-30
3.34807e-30
3.34807e-30
3.34807e-30
3.34807e-30
3.34807e-30
3.34807e-30
3.34807e-30
3.34807e-30
3.34807e-30
3.34807e-30
3.34807e-30
3.34807e-30
3.34807e-30
3.34807e-30
3.34807e-30
3.34807e-30
3.34807e-30
3.34807e-30
3.34807e-30
)
;

boundaryField
{
    topWall
    {
        type            zeroGradient;
    }
    bottomWall
    {
        type            zeroGradient;
    }
    sideWallL
    {
        type            symmetry;
    }
    sideWallR
    {
        type            zeroGradient;
    }
    frontAndBack
    {
        type            empty;
    }
}


// ************************************************************************* //
