/*--------------------------------*- C++ -*----------------------------------*\
  =========                 |
  \\      /  F ield         | OpenFOAM: The Open Source CFD Toolbox
   \\    /   O peration     | Website:  https://openfoam.org
    \\  /    A nd           | Version:  7
     \\/     M anipulation  |
\*---------------------------------------------------------------------------*/
FoamFile
{
    version     2.0;
    format      ascii;
    class       volScalarField;
    location    "12";
    object      rhog;
}
// * * * * * * * * * * * * * * * * * * * * * * * * * * * * * * * * * * * * * //

dimensions      [1 -3 0 0 0 0 0];

internalField   nonuniform List<scalar> 
900
(
3.66713e-09
3.6666e-09
3.66544e-09
3.66344e-09
3.66027e-09
3.65536e-09
3.64788e-09
3.63652e-09
3.6193e-09
3.59317e-09
3.55342e-09
3.49272e-09
3.39943e-09
3.25481e-09
3.02821e-09
2.66912e-09
2.0997e-09
1.24857e-09
3.1971e-10
3.14591e-12
2.10061e-10
2.09963e-10
2.0975e-10
2.09385e-10
2.08806e-10
2.07916e-10
2.06565e-10
2.04529e-10
2.01479e-10
1.96928e-10
1.90175e-10
1.80235e-10
1.65791e-10
1.45266e-10
1.17262e-10
8.19078e-11
4.36621e-11
1.3567e-11
1.33753e-12
1.1688e-14
1.54616e-11
1.54493e-11
1.54226e-11
1.53771e-11
1.53052e-11
1.51952e-11
1.50294e-11
1.47822e-11
1.4417e-11
1.38827e-11
1.3112e-11
1.20223e-11
1.05282e-11
8.57711e-12
6.22377e-12
3.73684e-12
1.63553e-12
4.20465e-13
4.55571e-14
1.68656e-15
1.51702e-12
1.51538e-12
1.51183e-12
1.50579e-12
1.49627e-12
1.4818e-12
1.46018e-12
1.42829e-12
1.38186e-12
1.31528e-12
1.22178e-12
1.09432e-12
9.2798e-13
7.2464e-13
4.9951e-13
2.85179e-13
1.22892e-13
3.5414e-14
6.1775e-15
7.76587e-16
2.02976e-13
2.02716e-13
2.02152e-13
2.01196e-13
1.99699e-13
1.97436e-13
1.94082e-13
1.89187e-13
1.82156e-13
1.7225e-13
1.58647e-13
1.40622e-13
1.17907e-13
9.12597e-14
6.30301e-14
3.71446e-14
1.77138e-14
6.53858e-15
1.90463e-15
5.36082e-16
3.73877e-14
3.73364e-14
3.72256e-14
3.70384e-14
3.67464e-14
3.63076e-14
3.56622e-14
3.47291e-14
3.3404e-14
3.15629e-14
2.90759e-14
2.58415e-14
2.18456e-14
1.7242e-14
1.24148e-14
7.94777e-15
4.42675e-15
2.14339e-15
9.49824e-16
4.38579e-16
9.46867e-15
9.45603e-15
9.42882e-15
9.38295e-15
9.31172e-15
9.20524e-15
9.04963e-15
8.8264e-15
8.51226e-15
8.0801e-15
7.5025e-15
6.75879e-15
5.84677e-15
4.79713e-15
3.68366e-15
2.61725e-15
1.71445e-15
1.05009e-15
6.27033e-16
3.90002e-16
3.26148e-15
3.25763e-15
3.24936e-15
3.23544e-15
3.21391e-15
3.18188e-15
3.13534e-15
3.06898e-15
2.97622e-15
2.84947e-15
2.68107e-15
2.46504e-15
2.19992e-15
1.89209e-15
1.55824e-15
1.2246e-15
9.21171e-16
6.72089e-16
4.87589e-16
3.62954e-16
1.49098e-15
1.48956e-15
1.48651e-15
1.4814e-15
1.47352e-15
1.46184e-15
1.44494e-15
1.42098e-15
1.38766e-15
1.34234e-15
1.2823e-15
1.20529e-15
1.11034e-15
9.98716e-16
8.74714e-16
7.45731e-16
6.21072e-16
5.09664e-16
4.17605e-16
3.46889e-16
8.66422e-16
8.65805e-16
8.64482e-16
8.62271e-16
8.58873e-16
8.53857e-16
8.46636e-16
8.36439e-16
8.22319e-16
8.0318e-16
7.77874e-16
7.45388e-16
7.05116e-16
6.57208e-16
6.02869e-16
5.44481e-16
4.85363e-16
4.29155e-16
3.79017e-16
3.36971e-16
6.04857e-16
6.04552e-16
6.03898e-16
6.02806e-16
6.01135e-16
5.98679e-16
5.95157e-16
5.90207e-16
5.8338e-16
5.74158e-16
5.61988e-16
5.46358e-16
5.26906e-16
5.03555e-16
4.76656e-16
4.47058e-16
4.1608e-16
3.85332e-16
3.56431e-16
3.30704e-16
4.79878e-16
4.7971e-16
4.79352e-16
4.78756e-16
4.77847e-16
4.76516e-16
4.74616e-16
4.71959e-16
4.6831e-16
4.634e-16
4.56939e-16
4.48649e-16
4.38312e-16
4.25836e-16
4.11317e-16
3.95086e-16
3.77718e-16
3.59974e-16
3.427e-16
3.26689e-16
4.14075e-16
4.13976e-16
4.13765e-16
4.13414e-16
4.12882e-16
4.12105e-16
4.11003e-16
4.09468e-16
4.07371e-16
4.04563e-16
4.00881e-16
3.96167e-16
3.90294e-16
3.83188e-16
3.74874e-16
3.65491e-16
3.55309e-16
3.44712e-16
3.34154e-16
3.24099e-16
3.76962e-16
3.769e-16
3.76769e-16
3.76552e-16
3.76223e-16
3.75746e-16
3.75073e-16
3.74141e-16
3.72874e-16
3.71187e-16
3.68985e-16
3.66177e-16
3.62685e-16
3.58463e-16
3.53513e-16
3.47901e-16
3.41761e-16
3.35297e-16
3.28761e-16
3.22424e-16
3.55021e-16
3.54981e-16
3.54897e-16
3.54758e-16
3.54548e-16
3.54246e-16
3.5382e-16
3.53235e-16
3.52445e-16
3.51399e-16
3.50041e-16
3.48317e-16
3.46181e-16
3.43605e-16
3.40587e-16
3.37158e-16
3.33394e-16
3.29405e-16
3.25335e-16
3.21342e-16
3.41645e-16
3.41619e-16
3.41564e-16
3.41473e-16
3.41336e-16
3.41141e-16
3.40867e-16
3.40493e-16
3.39991e-16
3.39329e-16
3.38476e-16
3.374e-16
3.36072e-16
3.34476e-16
3.3261e-16
3.30493e-16
3.28165e-16
3.25691e-16
3.23154e-16
3.20646e-16
3.33337e-16
3.33319e-16
3.33283e-16
3.33223e-16
3.33133e-16
3.33005e-16
3.32828e-16
3.32586e-16
3.32264e-16
3.31843e-16
3.31302e-16
3.30624e-16
3.29792e-16
3.28797e-16
3.27637e-16
3.26324e-16
3.24881e-16
3.23345e-16
3.21767e-16
3.20199e-16
3.28124e-16
3.28113e-16
3.28089e-16
3.28049e-16
3.2799e-16
3.27907e-16
3.27791e-16
3.27635e-16
3.27428e-16
3.27159e-16
3.26816e-16
3.26388e-16
3.25866e-16
3.25245e-16
3.24523e-16
3.23709e-16
3.22816e-16
3.21866e-16
3.20888e-16
3.19915e-16
3.24843e-16
3.24836e-16
3.2482e-16
3.24794e-16
3.24755e-16
3.24701e-16
3.24626e-16
3.24525e-16
3.24393e-16
3.24222e-16
3.24005e-16
3.23735e-16
3.23409e-16
3.23022e-16
3.22575e-16
3.22072e-16
3.21521e-16
3.20937e-16
3.20335e-16
3.19736e-16
3.2278e-16
3.22775e-16
3.22765e-16
3.22748e-16
3.22723e-16
3.22688e-16
3.22639e-16
3.22575e-16
3.22491e-16
3.22382e-16
3.22246e-16
3.22078e-16
3.21875e-16
3.21635e-16
3.2136e-16
3.21051e-16
3.20714e-16
3.20357e-16
3.1999e-16
3.19624e-16
3.21489e-16
3.21486e-16
3.21479e-16
3.21468e-16
3.21452e-16
3.21429e-16
3.21399e-16
3.21358e-16
3.21305e-16
3.21237e-16
3.21152e-16
3.21048e-16
3.20922e-16
3.20775e-16
3.20607e-16
3.20419e-16
3.20214e-16
3.19998e-16
3.19776e-16
3.19554e-16
3.20686e-16
3.20684e-16
3.2068e-16
3.20673e-16
3.20663e-16
3.20648e-16
3.20629e-16
3.20603e-16
3.2057e-16
3.20528e-16
3.20476e-16
3.20412e-16
3.20335e-16
3.20246e-16
3.20144e-16
3.2003e-16
3.19907e-16
3.19777e-16
3.19644e-16
3.19511e-16
3.20191e-16
3.2019e-16
3.20187e-16
3.20183e-16
3.20177e-16
3.20168e-16
3.20156e-16
3.2014e-16
3.20119e-16
3.20094e-16
3.20062e-16
3.20023e-16
3.19977e-16
3.19923e-16
3.19862e-16
3.19794e-16
3.1972e-16
3.19643e-16
3.19564e-16
3.19485e-16
3.19889e-16
3.19889e-16
3.19887e-16
3.19884e-16
3.1988e-16
3.19875e-16
3.19867e-16
3.19858e-16
3.19845e-16
3.1983e-16
3.1981e-16
3.19787e-16
3.19759e-16
3.19727e-16
3.19691e-16
3.19651e-16
3.19608e-16
3.19562e-16
3.19516e-16
3.1947e-16
3.19707e-16
3.19707e-16
3.19706e-16
3.19704e-16
3.19702e-16
3.19698e-16
3.19694e-16
3.19688e-16
3.1968e-16
3.19671e-16
3.1966e-16
3.19646e-16
3.19629e-16
3.19611e-16
3.19589e-16
3.19566e-16
3.19541e-16
3.19514e-16
3.19487e-16
3.1946e-16
3.19598e-16
3.19598e-16
3.19597e-16
3.19596e-16
3.19595e-16
3.19593e-16
3.1959e-16
3.19587e-16
3.19582e-16
3.19577e-16
3.1957e-16
3.19562e-16
3.19552e-16
3.19541e-16
3.19529e-16
3.19516e-16
3.19501e-16
3.19486e-16
3.1947e-16
3.19455e-16
3.19534e-16
3.19534e-16
3.19533e-16
3.19533e-16
3.19532e-16
3.19531e-16
3.19529e-16
3.19527e-16
3.19525e-16
3.19521e-16
3.19517e-16
3.19513e-16
3.19507e-16
3.19501e-16
3.19494e-16
3.19486e-16
3.19478e-16
3.19469e-16
3.1946e-16
3.19452e-16
3.19497e-16
3.19496e-16
3.19496e-16
3.19496e-16
3.19495e-16
3.19495e-16
3.19494e-16
3.19493e-16
3.19491e-16
3.19489e-16
3.19487e-16
3.19484e-16
3.19481e-16
3.19478e-16
3.19474e-16
3.19469e-16
3.19464e-16
3.1946e-16
3.19455e-16
3.1945e-16
3.19475e-16
3.19475e-16
3.19475e-16
3.19475e-16
3.19474e-16
3.19474e-16
3.19473e-16
3.19473e-16
3.19472e-16
3.19471e-16
3.19469e-16
3.19468e-16
3.19466e-16
3.19464e-16
3.19462e-16
3.19459e-16
3.19457e-16
3.19454e-16
3.19451e-16
3.19449e-16
3.19463e-16
3.19463e-16
3.19462e-16
3.19462e-16
3.19462e-16
3.19462e-16
3.19462e-16
3.19461e-16
3.19461e-16
3.1946e-16
3.1946e-16
3.19459e-16
3.19458e-16
3.19457e-16
3.19455e-16
3.19454e-16
3.19453e-16
3.19451e-16
3.1945e-16
3.19448e-16
3.19456e-16
3.19456e-16
3.19456e-16
3.19456e-16
3.19455e-16
3.19455e-16
3.19455e-16
3.19455e-16
3.19455e-16
3.19454e-16
3.19454e-16
3.19454e-16
3.19453e-16
3.19452e-16
3.19452e-16
3.19451e-16
3.1945e-16
3.19449e-16
3.19448e-16
3.19448e-16
3.19452e-16
3.19452e-16
3.19452e-16
3.19452e-16
3.19452e-16
3.19452e-16
3.19452e-16
3.19451e-16
3.19451e-16
3.19451e-16
3.19451e-16
3.19451e-16
3.1945e-16
3.1945e-16
3.1945e-16
3.19449e-16
3.19449e-16
3.19448e-16
3.19448e-16
3.19447e-16
3.1945e-16
3.1945e-16
3.1945e-16
3.1945e-16
3.1945e-16
3.1945e-16
3.1945e-16
3.19449e-16
3.19449e-16
3.19449e-16
3.19449e-16
3.19449e-16
3.19449e-16
3.19449e-16
3.19449e-16
3.19448e-16
3.19448e-16
3.19448e-16
3.19448e-16
3.19447e-16
3.19449e-16
3.19449e-16
3.19449e-16
3.19449e-16
3.19449e-16
3.19449e-16
3.19448e-16
3.19448e-16
3.19448e-16
3.19448e-16
3.19448e-16
3.19448e-16
3.19448e-16
3.19448e-16
3.19448e-16
3.19448e-16
3.19448e-16
3.19448e-16
3.19447e-16
3.19447e-16
3.19448e-16
3.19448e-16
3.19448e-16
3.19448e-16
3.19448e-16
3.19448e-16
3.19448e-16
3.19448e-16
3.19448e-16
3.19448e-16
3.19448e-16
3.19448e-16
3.19448e-16
3.19448e-16
3.19448e-16
3.19448e-16
3.19448e-16
3.19447e-16
3.19447e-16
3.19447e-16
3.19448e-16
3.19448e-16
3.19448e-16
3.19448e-16
3.19448e-16
3.19448e-16
3.19448e-16
3.19448e-16
3.19448e-16
3.19448e-16
3.19448e-16
3.19448e-16
3.19448e-16
3.19447e-16
3.19447e-16
3.19447e-16
3.19447e-16
3.19447e-16
3.19447e-16
3.19447e-16
3.19447e-16
3.19447e-16
3.19447e-16
3.19447e-16
3.19447e-16
3.19447e-16
3.19447e-16
3.19447e-16
3.19447e-16
3.19447e-16
3.19447e-16
3.19447e-16
3.19447e-16
3.19447e-16
3.19447e-16
3.19447e-16
3.19447e-16
3.19447e-16
3.19447e-16
3.19447e-16
3.19447e-16
3.19447e-16
3.19447e-16
3.19447e-16
3.19447e-16
3.19447e-16
3.19447e-16
3.19447e-16
3.19447e-16
3.19447e-16
3.19447e-16
3.19447e-16
3.19447e-16
3.19447e-16
3.19447e-16
3.19447e-16
3.19447e-16
3.19447e-16
3.19447e-16
3.19447e-16
3.19447e-16
3.19447e-16
3.19447e-16
3.19447e-16
3.19447e-16
3.19447e-16
3.19447e-16
3.19447e-16
3.19447e-16
3.19447e-16
3.19447e-16
3.19447e-16
3.19447e-16
3.19447e-16
3.19447e-16
3.19447e-16
3.19447e-16
3.19447e-16
3.19447e-16
3.19447e-16
3.19447e-16
3.19447e-16
3.19447e-16
3.19447e-16
3.19447e-16
3.19447e-16
3.19447e-16
3.19447e-16
3.19447e-16
3.19447e-16
3.19447e-16
3.19447e-16
3.19447e-16
3.19447e-16
3.19447e-16
3.19447e-16
3.19447e-16
3.19447e-16
3.19447e-16
3.19447e-16
3.19447e-16
3.19447e-16
3.19447e-16
3.19447e-16
3.19447e-16
3.19447e-16
3.19447e-16
3.19447e-16
3.19447e-16
3.19447e-16
3.19447e-16
3.19447e-16
3.19447e-16
3.19447e-16
3.19447e-16
3.19447e-16
3.19447e-16
3.19447e-16
3.19447e-16
3.19447e-16
3.19447e-16
3.19447e-16
3.19447e-16
3.19447e-16
3.19447e-16
3.19447e-16
3.19447e-16
3.19447e-16
3.19447e-16
3.19447e-16
3.19447e-16
3.19447e-16
3.19447e-16
3.19447e-16
3.19447e-16
3.19447e-16
3.19447e-16
3.19447e-16
3.19447e-16
3.19447e-16
3.19447e-16
3.19447e-16
3.19447e-16
3.19447e-16
3.19447e-16
3.19447e-16
3.19447e-16
3.19447e-16
3.19447e-16
3.19447e-16
3.19447e-16
3.19447e-16
3.19447e-16
3.19447e-16
3.19447e-16
3.19447e-16
3.19447e-16
3.19447e-16
3.19447e-16
3.19447e-16
3.19447e-16
3.19447e-16
3.19447e-16
3.19447e-16
3.19447e-16
3.19447e-16
3.19447e-16
3.19447e-16
3.19447e-16
3.19447e-16
3.19447e-16
3.19447e-16
3.19447e-16
3.19447e-16
3.19447e-16
3.19447e-16
3.19447e-16
3.19447e-16
3.19447e-16
3.19447e-16
3.19447e-16
3.19447e-16
3.19447e-16
3.19447e-16
3.19447e-16
3.19447e-16
3.19447e-16
3.19447e-16
3.19447e-16
3.19447e-16
3.19447e-16
3.19447e-16
3.19447e-16
3.19447e-16
3.19447e-16
3.19447e-16
3.19447e-16
3.19447e-16
3.19447e-16
3.19447e-16
)
;

boundaryField
{
    topWall
    {
        type            calculated;
        value           uniform 0;
    }
    bottomWall
    {
        type            zeroGradient;
    }
    sideWallL
    {
        type            symmetry;
    }
    sideWallR
    {
        type            calculated;
        value           uniform 0;
    }
    frontAndBack
    {
        type            empty;
    }
}


// ************************************************************************* //
