/*--------------------------------*- C++ -*----------------------------------*\
  =========                 |
  \\      /  F ield         | OpenFOAM: The Open Source CFD Toolbox
   \\    /   O peration     | Website:  https://openfoam.org
    \\  /    A nd           | Version:  7
     \\/     M anipulation  |
\*---------------------------------------------------------------------------*/
FoamFile
{
    version     2.0;
    format      ascii;
    class       volScalarField;
    location    "12";
    object      rhois;
}
// * * * * * * * * * * * * * * * * * * * * * * * * * * * * * * * * * * * * * //

dimensions      [1 -3 0 0 0 0 0];

internalField   nonuniform List<scalar> 
900
(
7.29112e-07
7.2904e-07
7.28882e-07
7.2861e-07
7.28177e-07
7.27505e-07
7.26474e-07
7.24902e-07
7.22506e-07
7.1885e-07
7.13253e-07
7.04635e-07
6.91256e-07
6.70231e-07
6.36627e-07
5.81696e-07
4.89785e-07
3.37216e-07
1.26738e-07
4.66058e-09
9.06112e-08
9.05825e-08
9.05198e-08
9.04124e-08
9.02412e-08
8.99767e-08
8.9573e-08
8.8961e-08
8.80366e-08
8.6644e-08
8.45517e-08
8.14197e-08
7.67595e-08
6.99041e-08
6.00456e-08
4.65166e-08
2.97119e-08
1.29195e-08
2.49406e-09
9.13082e-11
1.36288e-08
1.36214e-08
1.36055e-08
1.35783e-08
1.35351e-08
1.34685e-08
1.33676e-08
1.32159e-08
1.29893e-08
1.26534e-08
1.21599e-08
1.14443e-08
1.04272e-08
9.02744e-09
7.20078e-09
5.02334e-09
2.80355e-09
1.07774e-09
2.289e-10
2.42296e-11
2.5511e-09
2.54926e-09
2.54525e-09
2.53841e-09
2.52759e-09
2.51102e-09
2.48608e-09
2.44892e-09
2.39412e-09
2.31421e-09
2.1994e-09
2.03786e-09
1.81739e-09
1.52996e-09
1.18047e-09
7.98703e-10
4.44822e-10
1.88387e-10
5.74089e-11
1.42535e-11
6.05351e-10
6.04838e-10
6.03728e-10
6.01837e-10
5.9886e-10
5.94327e-10
5.87551e-10
5.77552e-10
5.6298e-10
5.42054e-10
5.12572e-10
4.72102e-10
4.18533e-10
3.51199e-10
2.72581e-10
1.89913e-10
1.14796e-10
5.86809e-11
2.58286e-11
1.10336e-11
1.83804e-10
1.83642e-10
1.8329e-10
1.82693e-10
1.81756e-10
1.80339e-10
1.78234e-10
1.75155e-10
1.70716e-10
1.64424e-10
1.55695e-10
1.43927e-10
1.28656e-10
1.09839e-10
8.82153e-11
6.55637e-11
4.45129e-11
2.76299e-11
1.61746e-11
9.58949e-12
7.13914e-11
7.13317e-11
7.1203e-11
7.0985e-11
7.06447e-11
7.01322e-11
6.93762e-11
6.82789e-11
6.67113e-11
6.45123e-11
6.14965e-11
5.74786e-11
5.23219e-11
4.60161e-11
3.87691e-11
3.10659e-11
2.36208e-11
1.71762e-11
1.22219e-11
8.82696e-12
3.49989e-11
3.49738e-11
3.49197e-11
3.48282e-11
3.46861e-11
3.4473e-11
3.41606e-11
3.37104e-11
3.3072e-11
3.21839e-11
3.0976e-11
2.93787e-11
2.73393e-11
2.48468e-11
2.196e-11
1.88266e-11
1.56739e-11
1.27595e-11
1.02956e-11
8.38673e-12
2.10227e-11
2.10107e-11
2.09849e-11
2.09415e-11
2.08743e-11
2.07739e-11
2.06277e-11
2.04182e-11
2.01231e-11
1.97155e-11
1.91645e-11
1.84397e-11
1.75163e-11
1.63852e-11
1.50627e-11
1.35983e-11
1.20742e-11
1.05922e-11
9.25037e-12
8.11904e-12
1.4835e-11
1.48286e-11
1.4815e-11
1.47921e-11
1.47568e-11
1.47043e-11
1.46283e-11
1.452e-11
1.43685e-11
1.41605e-11
1.38809e-11
1.35145e-11
1.30486e-11
1.24766e-11
1.18024e-11
1.10442e-11
1.02348e-11
9.41872e-12
8.64365e-12
7.95115e-12
1.17693e-11
1.17656e-11
1.17578e-11
1.17447e-11
1.17245e-11
1.16947e-11
1.16518e-11
1.1591e-11
1.15065e-11
1.13912e-11
1.1237e-11
1.10359e-11
1.07807e-11
1.04671e-11
1.00957e-11
9.67351e-12
9.21497e-12
8.741e-12
8.27605e-12
7.84391e-12
1.01155e-11
1.01133e-11
1.01085e-11
1.01005e-11
1.00882e-11
1.00703e-11
1.00445e-11
1.00082e-11
9.95809e-12
9.89011e-12
9.79978e-12
9.68251e-12
9.53423e-12
9.35221e-12
9.13614e-12
8.88904e-12
8.61777e-12
8.33284e-12
8.04727e-12
7.77471e-12
9.16655e-12
9.16511e-12
9.16205e-12
9.15695e-12
9.14918e-12
9.13783e-12
9.12165e-12
9.09904e-12
9.06801e-12
9.02619e-12
8.97099e-12
8.89972e-12
8.80999e-12
8.70015e-12
8.56982e-12
8.42041e-12
8.25541e-12
8.08041e-12
7.90259e-12
7.72984e-12
8.59795e-12
8.597e-12
8.59498e-12
8.59164e-12
8.58657e-12
8.57919e-12
8.56875e-12
8.55426e-12
8.53449e-12
8.50805e-12
8.47337e-12
8.42887e-12
8.37315e-12
8.30522e-12
8.2248e-12
8.13262e-12
8.03057e-12
7.92177e-12
7.81028e-12
7.70072e-12
8.24732e-12
8.24668e-12
8.24533e-12
8.2431e-12
8.23973e-12
8.23486e-12
8.22801e-12
8.21856e-12
8.20577e-12
8.18877e-12
8.16664e-12
8.13842e-12
8.1033e-12
8.06068e-12
8.01042e-12
7.95291e-12
7.88926e-12
7.82123e-12
7.7512e-12
7.68187e-12
8.0272e-12
8.02677e-12
8.02586e-12
8.02436e-12
8.02211e-12
8.01887e-12
8.01434e-12
8.00813e-12
7.99979e-12
7.98879e-12
7.97455e-12
7.95653e-12
7.93423e-12
7.90733e-12
7.87574e-12
7.83971e-12
7.79988e-12
7.75731e-12
7.71338e-12
7.66971e-12
7.88768e-12
7.88739e-12
7.88677e-12
7.88577e-12
7.88426e-12
7.8821e-12
7.87911e-12
7.87503e-12
7.86958e-12
7.86245e-12
7.85329e-12
7.84176e-12
7.82759e-12
7.81059e-12
7.79073e-12
7.76816e-12
7.74327e-12
7.7167e-12
7.68926e-12
7.66191e-12
7.79893e-12
7.79873e-12
7.79832e-12
7.79765e-12
7.79664e-12
7.79521e-12
7.79324e-12
7.79057e-12
7.78703e-12
7.78242e-12
7.77654e-12
7.7692e-12
7.76022e-12
7.74951e-12
7.73706e-12
7.72298e-12
7.70749e-12
7.69098e-12
7.67395e-12
7.65695e-12
7.74253e-12
7.7424e-12
7.74212e-12
7.74167e-12
7.74101e-12
7.74007e-12
7.73878e-12
7.73705e-12
7.73476e-12
7.73181e-12
7.72806e-12
7.72341e-12
7.71775e-12
7.71105e-12
7.70329e-12
7.69455e-12
7.68498e-12
7.67479e-12
7.66429e-12
7.65381e-12
7.70683e-12
7.70675e-12
7.70657e-12
7.70627e-12
7.70584e-12
7.70523e-12
7.70439e-12
7.70328e-12
7.70182e-12
7.69994e-12
7.69757e-12
7.69465e-12
7.69112e-12
7.68695e-12
7.68216e-12
7.67678e-12
7.6709e-12
7.66467e-12
7.65825e-12
7.65185e-12
7.6844e-12
7.68434e-12
7.68422e-12
7.68403e-12
7.68375e-12
7.68336e-12
7.68283e-12
7.68212e-12
7.68119e-12
7.68001e-12
7.67853e-12
7.67671e-12
7.67453e-12
7.67197e-12
7.66903e-12
7.66575e-12
7.66217e-12
7.65839e-12
7.6545e-12
7.65063e-12
7.67041e-12
7.67037e-12
7.6703e-12
7.67017e-12
7.67e-12
7.66975e-12
7.66941e-12
7.66896e-12
7.66839e-12
7.66765e-12
7.66674e-12
7.66562e-12
7.66428e-12
7.66272e-12
7.66094e-12
7.65896e-12
7.65681e-12
7.65453e-12
7.6522e-12
7.64988e-12
7.66177e-12
7.66175e-12
7.6617e-12
7.66162e-12
7.66151e-12
7.66136e-12
7.66115e-12
7.66087e-12
7.66051e-12
7.66006e-12
7.6595e-12
7.65882e-12
7.65801e-12
7.65707e-12
7.65601e-12
7.65482e-12
7.65354e-12
7.65218e-12
7.6508e-12
7.64942e-12
7.65649e-12
7.65648e-12
7.65645e-12
7.6564e-12
7.65633e-12
7.65624e-12
7.65611e-12
7.65594e-12
7.65572e-12
7.65545e-12
7.65511e-12
7.6547e-12
7.65422e-12
7.65366e-12
7.65302e-12
7.65232e-12
7.65157e-12
7.65077e-12
7.64996e-12
7.64915e-12
7.6533e-12
7.65329e-12
7.65328e-12
7.65325e-12
7.6532e-12
7.65315e-12
7.65307e-12
7.65297e-12
7.65284e-12
7.65267e-12
7.65247e-12
7.65223e-12
7.65194e-12
7.65161e-12
7.65124e-12
7.65083e-12
7.65039e-12
7.64993e-12
7.64945e-12
7.64898e-12
7.6514e-12
7.65139e-12
7.65138e-12
7.65136e-12
7.65134e-12
7.6513e-12
7.65126e-12
7.6512e-12
7.65112e-12
7.65102e-12
7.6509e-12
7.65076e-12
7.65059e-12
7.6504e-12
7.65019e-12
7.64995e-12
7.64969e-12
7.64943e-12
7.64916e-12
7.64888e-12
7.65027e-12
7.65027e-12
7.65026e-12
7.65025e-12
7.65024e-12
7.65022e-12
7.65019e-12
7.65015e-12
7.65011e-12
7.65005e-12
7.64998e-12
7.6499e-12
7.6498e-12
7.64969e-12
7.64957e-12
7.64943e-12
7.64929e-12
7.64914e-12
7.64898e-12
7.64883e-12
7.64962e-12
7.64961e-12
7.64961e-12
7.6496e-12
7.6496e-12
7.64958e-12
7.64957e-12
7.64955e-12
7.64952e-12
7.64949e-12
7.64945e-12
7.6494e-12
7.64935e-12
7.64928e-12
7.64921e-12
7.64914e-12
7.64906e-12
7.64897e-12
7.64888e-12
7.6488e-12
7.64924e-12
7.64924e-12
7.64923e-12
7.64923e-12
7.64923e-12
7.64922e-12
7.64921e-12
7.6492e-12
7.64918e-12
7.64916e-12
7.64914e-12
7.64912e-12
7.64908e-12
7.64905e-12
7.64901e-12
7.64897e-12
7.64892e-12
7.64887e-12
7.64883e-12
7.64878e-12
7.64902e-12
7.64902e-12
7.64902e-12
7.64902e-12
7.64902e-12
7.64901e-12
7.64901e-12
7.649e-12
7.64899e-12
7.64898e-12
7.64897e-12
7.64895e-12
7.64894e-12
7.64892e-12
7.6489e-12
7.64887e-12
7.64885e-12
7.64882e-12
7.64879e-12
7.64877e-12
7.6489e-12
7.6489e-12
7.6489e-12
7.6489e-12
7.6489e-12
7.6489e-12
7.64889e-12
7.64889e-12
7.64888e-12
7.64888e-12
7.64887e-12
7.64886e-12
7.64885e-12
7.64884e-12
7.64883e-12
7.64882e-12
7.6488e-12
7.64879e-12
7.64878e-12
7.64876e-12
7.64883e-12
7.64883e-12
7.64883e-12
7.64883e-12
7.64883e-12
7.64883e-12
7.64883e-12
7.64883e-12
7.64882e-12
7.64882e-12
7.64882e-12
7.64881e-12
7.64881e-12
7.6488e-12
7.6488e-12
7.64879e-12
7.64878e-12
7.64877e-12
7.64877e-12
7.64876e-12
7.6488e-12
7.6488e-12
7.6488e-12
7.6488e-12
7.6488e-12
7.64879e-12
7.64879e-12
7.64879e-12
7.64879e-12
7.64879e-12
7.64879e-12
7.64879e-12
7.64878e-12
7.64878e-12
7.64878e-12
7.64877e-12
7.64877e-12
7.64876e-12
7.64876e-12
7.64876e-12
7.64878e-12
7.64878e-12
7.64878e-12
7.64878e-12
7.64878e-12
7.64878e-12
7.64878e-12
7.64877e-12
7.64877e-12
7.64877e-12
7.64877e-12
7.64877e-12
7.64877e-12
7.64877e-12
7.64877e-12
7.64876e-12
7.64876e-12
7.64876e-12
7.64876e-12
7.64875e-12
7.64877e-12
7.64877e-12
7.64877e-12
7.64877e-12
7.64877e-12
7.64877e-12
7.64876e-12
7.64876e-12
7.64876e-12
7.64876e-12
7.64876e-12
7.64876e-12
7.64876e-12
7.64876e-12
7.64876e-12
7.64876e-12
7.64876e-12
7.64876e-12
7.64876e-12
7.64875e-12
7.64876e-12
7.64876e-12
7.64876e-12
7.64876e-12
7.64876e-12
7.64876e-12
7.64876e-12
7.64876e-12
7.64876e-12
7.64876e-12
7.64876e-12
7.64876e-12
7.64876e-12
7.64876e-12
7.64876e-12
7.64876e-12
7.64876e-12
7.64876e-12
7.64875e-12
7.64875e-12
7.64876e-12
7.64876e-12
7.64876e-12
7.64876e-12
7.64876e-12
7.64876e-12
7.64876e-12
7.64876e-12
7.64876e-12
7.64876e-12
7.64876e-12
7.64876e-12
7.64876e-12
7.64876e-12
7.64876e-12
7.64876e-12
7.64875e-12
7.64875e-12
7.64875e-12
7.64875e-12
7.64876e-12
7.64876e-12
7.64876e-12
7.64876e-12
7.64876e-12
7.64876e-12
7.64876e-12
7.64876e-12
7.64876e-12
7.64876e-12
7.64876e-12
7.64876e-12
7.64875e-12
7.64875e-12
7.64875e-12
7.64875e-12
7.64875e-12
7.64875e-12
7.64875e-12
7.64875e-12
7.64875e-12
7.64875e-12
7.64875e-12
7.64875e-12
7.64875e-12
7.64875e-12
7.64875e-12
7.64875e-12
7.64875e-12
7.64875e-12
7.64875e-12
7.64875e-12
7.64875e-12
7.64875e-12
7.64875e-12
7.64875e-12
7.64875e-12
7.64875e-12
7.64875e-12
7.64875e-12
7.64875e-12
7.64875e-12
7.64875e-12
7.64875e-12
7.64875e-12
7.64875e-12
7.64875e-12
7.64875e-12
7.64875e-12
7.64875e-12
7.64875e-12
7.64875e-12
7.64875e-12
7.64875e-12
7.64875e-12
7.64875e-12
7.64875e-12
7.64875e-12
7.64875e-12
7.64875e-12
7.64875e-12
7.64875e-12
7.64875e-12
7.64875e-12
7.64875e-12
7.64875e-12
7.64875e-12
7.64875e-12
7.64875e-12
7.64875e-12
7.64875e-12
7.64875e-12
7.64875e-12
7.64875e-12
7.64875e-12
7.64875e-12
7.64875e-12
7.64875e-12
7.64875e-12
7.64875e-12
7.64875e-12
7.64875e-12
7.64875e-12
7.64875e-12
7.64875e-12
7.64875e-12
7.64875e-12
7.64875e-12
7.64875e-12
7.64875e-12
7.64875e-12
7.64875e-12
7.64875e-12
7.64875e-12
7.64875e-12
7.64875e-12
7.64875e-12
7.64875e-12
7.64875e-12
7.64875e-12
7.64875e-12
7.64875e-12
7.64875e-12
7.64875e-12
7.64875e-12
7.64875e-12
7.64875e-12
7.64875e-12
7.64875e-12
7.64875e-12
7.64875e-12
7.64875e-12
7.64875e-12
7.64875e-12
7.64875e-12
7.64875e-12
7.64875e-12
7.64875e-12
7.64875e-12
7.64875e-12
7.64875e-12
7.64875e-12
7.64875e-12
7.64875e-12
7.64875e-12
7.64875e-12
7.64875e-12
7.64875e-12
7.64875e-12
7.64875e-12
7.64875e-12
7.64875e-12
7.64875e-12
7.64875e-12
7.64875e-12
7.64875e-12
7.64875e-12
7.64875e-12
7.64875e-12
7.64875e-12
7.64875e-12
7.64875e-12
7.64875e-12
7.64875e-12
7.64875e-12
7.64875e-12
7.64875e-12
7.64875e-12
7.64875e-12
7.64875e-12
7.64875e-12
7.64875e-12
7.64875e-12
7.64875e-12
7.64875e-12
7.64875e-12
7.64875e-12
7.64875e-12
7.64875e-12
7.64875e-12
)
;

boundaryField
{
    topWall
    {
        type            zeroGradient;
    }
    bottomWall
    {
        type            zeroGradient;
    }
    sideWallL
    {
        type            symmetry;
    }
    sideWallR
    {
        type            zeroGradient;
    }
    frontAndBack
    {
        type            empty;
    }
}


// ************************************************************************* //
