/*--------------------------------*- C++ -*----------------------------------*\
  =========                 |
  \\      /  F ield         | OpenFOAM: The Open Source CFD Toolbox
   \\    /   O peration     | Website:  https://openfoam.org
    \\  /    A nd           | Version:  7
     \\/     M anipulation  |
\*---------------------------------------------------------------------------*/
FoamFile
{
    version     2.0;
    format      ascii;
    class       volScalarField;
    location    "12";
    object      T;
}
// * * * * * * * * * * * * * * * * * * * * * * * * * * * * * * * * * * * * * //

dimensions      [0 0 0 1 0 0 0];

internalField   nonuniform List<scalar> 
900
(
380.176
380.174
380.171
380.166
380.158
380.145
380.126
380.098
380.055
379.99
379.892
379.743
379.51
379.142
378.537
377.492
375.536
371.39
360.956
329.171
358.817
358.813
358.804
358.789
358.765
358.729
358.675
358.594
358.472
358.29
358.015
357.598
356.958
355.959
354.365
351.744
347.26
339.228
324.233
296.102
341.153
341.146
341.133
341.109
341.073
341.017
340.933
340.809
340.624
340.348
339.937
339.321
338.393
336.981
334.81
331.429
326.099
317.647
304.424
284.961
326.657
326.648
326.631
326.601
326.555
326.484
326.379
326.224
325.995
325.658
325.162
324.431
323.354
321.763
319.411
315.936
310.833
303.465
293.237
280.14
314.86
314.85
314.83
314.796
314.744
314.664
314.547
314.375
314.123
313.757
313.227
312.461
311.358
309.776
307.524
304.351
299.958
294.055
286.504
277.605
305.346
305.336
305.314
305.279
305.224
305.141
305.02
304.843
304.588
304.222
303.7
302.961
301.921
300.472
298.478
295.781
292.223
287.694
282.222
276.093
297.746
297.737
297.715
297.68
297.625
297.544
297.426
297.256
297.013
296.669
296.186
295.515
294.591
293.338
291.665
289.48
286.706
283.318
279.386
275.122
291.738
291.729
291.709
291.675
291.624
291.548
291.438
291.282
291.061
290.753
290.328
289.747
288.964
287.926
286.576
284.864
282.758
280.265
277.454
274.472
287.039
287.03
287.012
286.981
286.934
286.866
286.769
286.631
286.439
286.174
285.814
285.33
284.69
283.859
282.803
281.495
279.927
278.115
276.115
274.026
283.403
283.396
283.379
283.353
283.312
283.253
283.169
283.052
282.89
282.67
282.375
281.985
281.477
280.83
280.024
279.046
277.896
276.592
275.178
273.715
280.623
280.617
280.603
280.58
280.546
280.496
280.427
280.33
280.198
280.021
279.786
279.479
279.087
278.595
277.992
277.273
276.441
275.513
274.518
273.498
278.522
278.517
278.506
278.487
278.459
278.418
278.362
278.285
278.18
278.041
277.859
277.624
277.327
276.96
276.518
275.997
275.403
274.748
274.053
273.345
276.954
276.95
276.941
276.926
276.903
276.871
276.827
276.766
276.685
276.579
276.44
276.264
276.045
275.776
275.456
275.085
274.665
274.208
273.726
273.237
275.798
275.795
275.787
275.776
275.758
275.733
275.699
275.653
275.592
275.512
275.409
275.28
275.12
274.927
274.699
274.437
274.145
273.828
273.497
273.162
274.956
274.954
274.948
274.939
274.926
274.907
274.881
274.847
274.801
274.743
274.668
274.575
274.46
274.324
274.164
273.982
273.78
273.563
273.337
273.11
274.351
274.349
274.345
274.338
274.328
274.314
274.296
274.27
274.237
274.195
274.142
274.075
273.995
273.9
273.789
273.664
273.527
273.379
273.227
273.074
273.922
273.92
273.917
273.912
273.905
273.895
273.881
273.863
273.84
273.81
273.772
273.726
273.67
273.605
273.529
273.445
273.352
273.253
273.151
273.049
273.621
273.62
273.618
273.614
273.609
273.602
273.592
273.58
273.563
273.542
273.516
273.485
273.447
273.402
273.351
273.295
273.233
273.167
273.1
273.033
273.414
273.413
273.411
273.409
273.405
273.4
273.393
273.384
273.373
273.359
273.341
273.32
273.294
273.264
273.231
273.193
273.152
273.109
273.065
273.021
273.272
273.271
273.27
273.268
273.266
273.263
273.258
273.252
273.244
273.235
273.223
273.208
273.192
273.172
273.15
273.125
273.099
273.071
273.042
273.014
273.176
273.176
273.175
273.174
273.172
273.17
273.167
273.163
273.158
273.151
273.144
273.134
273.123
273.11
273.096
273.08
273.063
273.045
273.027
273.009
273.113
273.113
273.112
273.112
273.11
273.109
273.107
273.104
273.101
273.097
273.092
273.085
273.078
273.07
273.061
273.051
273.04
273.029
273.017
273.006
273.072
273.071
273.071
273.071
273.07
273.069
273.067
273.066
273.064
273.061
273.058
273.054
273.049
273.044
273.038
273.032
273.025
273.018
273.011
273.003
273.045
273.045
273.044
273.044
273.044
273.043
273.042
273.041
273.04
273.038
273.036
273.033
273.031
273.027
273.024
273.02
273.015
273.011
273.007
273.002
273.028
273.028
273.027
273.027
273.027
273.026
273.026
273.025
273.024
273.023
273.022
273.02
273.019
273.017
273.014
273.012
273.009
273.007
273.004
273.001
273.017
273.017
273.017
273.017
273.016
273.016
273.016
273.015
273.015
273.014
273.013
273.012
273.011
273.01
273.009
273.007
273.006
273.004
273.002
273.001
273.01
273.01
273.01
273.01
273.01
273.01
273.009
273.009
273.009
273.008
273.008
273.007
273.007
273.006
273.005
273.004
273.003
273.002
273.001
273
273.006
273.006
273.006
273.006
273.006
273.006
273.006
273.005
273.005
273.005
273.005
273.004
273.004
273.004
273.003
273.003
273.002
273.001
273.001
273
273.004
273.004
273.003
273.003
273.003
273.003
273.003
273.003
273.003
273.003
273.003
273.003
273.002
273.002
273.002
273.001
273.001
273.001
273
273
273.002
273.002
273.002
273.002
273.002
273.002
273.002
273.002
273.002
273.002
273.002
273.001
273.001
273.001
273.001
273.001
273.001
273
273
273
273.001
273.001
273.001
273.001
273.001
273.001
273.001
273.001
273.001
273.001
273.001
273.001
273.001
273.001
273.001
273
273
273
273
273
273.001
273.001
273.001
273.001
273.001
273.001
273.001
273.001
273.001
273.001
273.001
273
273
273
273
273
273
273
273
273
273
273
273
273
273
273
273
273
273
273
273
273
273
273
273
273
273
273
273
273
273
273
273
273
273
273
273
273
273
273
273
273
273
273
273
273
273
273
273
273
273
273
273
273
273
273
273
273
273
273
273
273
273
273
273
273
273
273
273
273
273
273
273
273
273
273
273
273
273
273
273
273
273
273
273
273
273
273
273
273
273
273
273
273
273
273
273
273
273
273
273
273
273
273
273
273
273
273
273
273
273
273
273
273
273
273
273
273
273
273
273
273
273
273
273
273
273
273
273
273
273
273
273
273
273
273
273
273
273
273
273
273
273
273
273
273
273
273
273
273
273
273
273
273
273
273
273
273
273
273
273
273
273
273
273
273
273
273
273
273
273
273
273
273
273
273
273
273
273
273
273
273
273
273
273
273
273
273
273
273
273
273
273
273
273
273
273
273
273
273
273
273
273
273
273
273
273
273
273
273
273
273
273
273
273
273
273
273
273
273
273
273
273
273
273
273
273
273
273
273
273
273
273
273
273
273
273
273
273
273
273
273
273
273
273
273
273
273
273
273
273
273
273
273
273
273
273
273
273
273
273
273
273
273
273
273
273
273
273
273
)
;

boundaryField
{
    topWall
    {
        type            zeroGradient;
    }
    bottomWall
    {
        type            codedFixedValue;
        value           uniform 393;
        name            heating;
        code            #{
            const scalar t = this->db().time().value();
            const scalar Ttemp = 273 + 10*t;
            operator==(Ttemp);
        #};
    }
    sideWallL
    {
        type            symmetry;
    }
    sideWallR
    {
        type            fixedValue;
        value           uniform 273;
    }
    frontAndBack
    {
        type            empty;
    }
}


// ************************************************************************* //
